ITEM: TIMESTEP
0
ITEM: NUMBER OF ATOMS
1328
ITEM: BOX BOUNDS pp pp pp
-2.5000000000000000e+01 2.5000000000000000e+01
-2.5000000000000000e+01 2.5000000000000000e+01
-2.5000000000000000e+01 2.5000000000000000e+01
ITEM: ATOMS type id x y z c_outsp[1] c_outsp[2] c_outsp[3] c_peAtom c_keAtom
1 1 -4.29975 -4.29975 -10.0328 0 0 1 -3.07692 0
1 2 -1.43325 -4.29975 -10.0328 0 0 1 -3.24462 0
1 3 1.43325 -4.29975 -10.0328 0 0 1 -3.24462 0
1 4 4.29975 -4.29975 -10.0328 0 0 1 -3.07692 0
1 5 -10.0328 -1.43325 -10.0328 0 0 1 -3.06682 0
1 6 -7.16625 -1.43325 -10.0328 0 0 1 -3.25879 0
1 7 -4.29975 -1.43325 -10.0328 0 0 1 -3.41333 0
1 8 -1.43325 -1.43325 -10.0328 0 0 1 -3.41753 0
1 9 1.43325 -1.43325 -10.0328 0 0 1 -3.41753 0
1 10 4.29975 -1.43325 -10.0328 0 0 1 -3.41333 0
1 11 7.16625 -1.43325 -10.0328 0 0 1 -3.25879 0
1 12 10.0328 -1.43325 -10.0328 0 0 1 -3.06682 0
1 13 -10.0328 1.43325 -10.0328 0 0 1 -3.08214 0
1 14 -7.16625 1.43325 -10.0328 0 0 1 -3.42256 0
1 15 -4.29975 1.43325 -10.0328 0 0 1 -3.41928 0
1 16 -1.43325 1.43325 -10.0328 0 0 1 -3.40348 0
1 17 1.43325 1.43325 -10.0328 0 0 1 -3.40348 0
1 18 4.29975 1.43325 -10.0328 0 0 1 -3.41928 0
1 19 7.16625 1.43325 -10.0328 0 0 1 -3.42256 0
1 20 10.0328 1.43325 -10.0328 0 0 1 -3.08214 0
1 21 -7.16625 4.29975 -10.0328 0 0 1 -3.07924 0
1 22 -4.29975 4.29975 -10.0328 0 0 1 -3.23675 0
1 23 -1.43325 4.29975 -10.0328 0 0 1 -3.22693 0
1 24 1.43325 4.29975 -10.0328 0 0 1 -3.22693 0
1 25 4.29975 4.29975 -10.0328 0 0 1 -3.23675 0
1 26 7.16625 4.29975 -10.0328 0 0 1 -3.07924 0
1 27 -7.16625 -7.16625 -7.16625 0 0 1 -3.10564 0
1 28 -4.29975 -7.16625 -7.16625 0 0 1 -3.53435 0
1 29 -1.43325 -7.16625 -7.16625 0 0 1 -3.55364 0
1 30 1.43325 -7.16625 -7.16625 0 0 1 -3.55364 0
1 31 4.29975 -7.16625 -7.16625 0 0 1 -3.53435 0
1 32 7.16625 -7.16625 -7.16625 0 0 1 -3.10564 0
1 33 -12.8992 -4.29975 -7.16625 0 0 1 -3.26458 0
1 34 -10.0328 -4.29975 -7.16625 0 0 1 -3.55246 0
1 35 -7.16625 -4.29975 -7.16625 0 0 1 -3.80051 0
1 36 -5.733 -5.733 -8.5995 0 0 1 -3.25597 0
2 37 -4.29975 -4.29975 -7.16625 0 0 1 -4.3579 0
1 38 -2.8665 -5.733 -8.5995 0 0 1 -3.561 0
2 39 -1.43325 -4.29975 -7.16625 0 0 1 -4.39685 0
1 40 0 -5.733 -8.5995 0 0 1 -3.56073 0
2 41 1.43325 -4.29975 -7.16625 0 0 1 -4.39685 0
1 42 2.8665 -5.733 -8.5995 0 0 1 -3.561 0
2 43 4.29975 -4.29975 -7.16625 0 0 1 -4.3579 0
1 44 5.733 -5.733 -8.5995 0 0 1 -3.25597 0
1 45 7.16625 -4.29975 -7.16625 0 0 1 -3.80051 0
1 46 10.0328 -4.29975 -7.16625 0 0 1 -3.55246 0
1 47 12.8992 -4.29975 -7.16625 0 0 1 -3.26458 0
1 48 -15.7657 -1.43325 -7.16625 0 0 1 -3.25843 0
1 49 -12.8992 -1.43325 -7.16625 0 0 1 -3.83137 0
1 50 -11.466 -2.8665 -8.5995 0 0 1 -3.25553 0
2 51 -10.0328 -1.43325 -7.16625 0 0 1 -4.36453 0
1 52 -8.5995 -2.8665 -8.5995 0 0 1 -3.57222 0
2 53 -7.16625 -1.43325 -7.16625 0 0 1 -4.38772 0
1 54 -5.733 -2.8665 -8.5995 0 0 1 -3.85935 0
2 55 -4.29975 -1.43325 -7.16625 0 0 1 -4.41932 0
1 56 -2.8665 -2.8665 -8.5995 0 0 1 -4.00139 0
2 57 -1.43325 -1.43325 -7.16625 0 0 1 -4.42169 0
1 58 0 -2.8665 -8.5995 0 0 1 -3.99844 0
2 59 1.43325 -1.43325 -7.16625 0 0 1 -4.42169 0
1 60 2.8665 -2.8665 -8.5995 0 0 1 -4.00139 0
2 61 4.29975 -1.43325 -7.16625 0 0 1 -4.41932 0
1 62 5.733 -2.8665 -8.5995 0 0 1 -3.85935 0
2 63 7.16625 -1.43325 -7.16625 0 0 1 -4.38772 0
1 64 8.5995 -2.8665 -8.5995 0 0 1 -3.57222 0
2 65 10.0328 -1.43325 -7.16625 0 0 1 -4.36453 0
1 66 11.466 -2.8665 -8.5995 0 0 1 -3.25553 0
1 67 12.8992 -1.43325 -7.16625 0 0 1 -3.83137 0
1 68 15.7657 -1.43325 -7.16625 0 0 1 -3.25843 0
1 69 -15.7657 1.43325 -7.16625 0 0 1 -3.55969 0
1 70 -14.3325 0 -8.5995 0 0 1 -3.06703 0
1 71 -12.8992 1.43325 -7.16625 0 0 1 -4.03151 0
1 93 -14.3325 2.8665 -8.5995 0 0 1 -3.12104 0
1 72 -11.466 0 -8.5995 0 0 1 -3.72458 0
2 73 -10.0328 1.43325 -7.16625 0 0 1 -4.37047 0
1 95 -11.466 2.8665 -8.5995 0 0 1 -3.55838 0
1 74 -8.5995 0 -8.5995 0 0 1 -4.03923 0
2 75 -7.16625 1.43325 -7.16625 0 0 1 -4.45402 0
1 97 -8.5995 2.8665 -8.5995 0 0 1 -3.90815 0
1 76 -5.733 0 -8.5995 0 0 1 -3.99144 0
2 77 -4.29975 1.43325 -7.16625 0 0 1 -4.42091 0
1 99 -5.733 2.8665 -8.5995 0 0 1 -3.9929 0
2 78 -2.8665 0 -8.5995 0 0 1 -4.24722 0
2 79 -1.43325 1.43325 -7.16625 0 0 1 -4.39528 0
2 101 -2.8665 2.8665 -8.5995 0 0 1 -4.24074 0
2 80 0 0 -8.5995 0 0 1 -4.2525 0
2 81 1.43325 1.43325 -7.16625 0 0 1 -4.39528 0
2 82 2.8665 0 -8.5995 0 0 1 -4.24722 0
2 103 0 2.8665 -8.5995 0 0 1 -4.24553 0
2 105 2.8665 2.8665 -8.5995 0 0 1 -4.24074 0
2 83 4.29975 1.43325 -7.16625 0 0 1 -4.42091 0
1 84 5.733 0 -8.5995 0 0 1 -3.99144 0
1 107 5.733 2.8665 -8.5995 0 0 1 -3.9929 0
2 85 7.16625 1.43325 -7.16625 0 0 1 -4.45402 0
1 86 8.5995 0 -8.5995 0 0 1 -4.03923 0
1 109 8.5995 2.8665 -8.5995 0 0 1 -3.90815 0
2 87 10.0328 1.43325 -7.16625 0 0 1 -4.37047 0
1 88 11.466 0 -8.5995 0 0 1 -3.72458 0
1 111 11.466 2.8665 -8.5995 0 0 1 -3.55838 0
1 89 12.8992 1.43325 -7.16625 0 0 1 -4.03151 0
1 90 14.3325 0 -8.5995 0 0 1 -3.06703 0
1 113 14.3325 2.8665 -8.5995 0 0 1 -3.12104 0
1 91 15.7657 1.43325 -7.16625 0 0 1 -3.55969 0
1 92 -15.7657 4.29975 -7.16625 0 0 1 -3.30718 0
1 94 -12.8992 4.29975 -7.16625 0 0 1 -3.85483 0
1 96 -10.0328 4.29975 -7.16625 0 0 1 -3.99544 0
1 116 -11.466 5.733 -8.5995 0 0 1 -3.12064 0
2 98 -7.16625 4.29975 -7.16625 0 0 1 -4.36481 0
1 118 -8.5995 5.733 -8.5995 0 0 1 -3.39783 0
2 100 -4.29975 4.29975 -7.16625 0 0 1 -4.3867 0
1 120 -5.733 5.733 -8.5995 0 0 1 -3.58285 0
2 102 -1.43325 4.29975 -7.16625 0 0 1 -4.37813 0
1 122 -2.8665 5.733 -8.5995 0 0 1 -3.67883 0
2 104 1.43325 4.29975 -7.16625 0 0 1 -4.37813 0
1 124 0 5.733 -8.5995 0 0 1 -3.69893 0
1 126 2.8665 5.733 -8.5995 0 0 1 -3.67883 0
2 106 4.29975 4.29975 -7.16625 0 0 1 -4.3867 0
1 128 5.733 5.733 -8.5995 0 0 1 -3.58285 0
2 108 7.16625 4.29975 -7.16625 0 0 1 -4.36481 0
1 130 8.5995 5.733 -8.5995 0 0 1 -3.39783 0
1 110 10.0328 4.29975 -7.16625 0 0 1 -3.99544 0
1 132 11.466 5.733 -8.5995 0 0 1 -3.12064 0
1 112 12.8992 4.29975 -7.16625 0 0 1 -3.85483 0
1 114 15.7657 4.29975 -7.16625 0 0 1 -3.30718 0
1 115 -12.8992 7.16625 -7.16625 0 0 1 -3.12296 0
1 117 -10.0328 7.16625 -7.16625 0 0 1 -3.56952 0
1 119 -7.16625 7.16625 -7.16625 0 0 1 -3.55746 0
1 121 -4.29975 7.16625 -7.16625 0 0 1 -3.84188 0
1 123 -1.43325 7.16625 -7.16625 0 0 1 -3.98547 0
1 135 -2.8665 8.5995 -8.5995 0 0 1 -3.09673 0
1 125 1.43325 7.16625 -7.16625 0 0 1 -3.98547 0
1 137 0 8.5995 -8.5995 0 0 1 -3.26904 0
1 139 2.8665 8.5995 -8.5995 0 0 1 -3.09673 0
1 127 4.29975 7.16625 -7.16625 0 0 1 -3.84188 0
1 129 7.16625 7.16625 -7.16625 0 0 1 -3.55746 0
1 131 10.0328 7.16625 -7.16625 0 0 1 -3.56952 0
1 133 12.8992 7.16625 -7.16625 0 0 1 -3.12296 0
1 134 -4.29975 10.0328 -7.16625 0 0 1 -2.8831 0
1 136 -1.43325 10.0328 -7.16625 0 0 1 -3.43318 0
1 138 1.43325 10.0328 -7.16625 0 0 1 -3.43318 0
1 140 4.29975 10.0328 -7.16625 0 0 1 -2.8831 0
1 141 -4.29975 -10.0328 -4.29975 0 0 1 -3.07692 0
1 142 -1.43325 -10.0328 -4.29975 0 0 1 -3.24462 0
1 143 1.43325 -10.0328 -4.29975 0 0 1 -3.24462 0
1 144 4.29975 -10.0328 -4.29975 0 0 1 -3.07692 0
1 145 -12.8992 -7.16625 -4.29975 0 0 1 -3.26458 0
1 146 -10.0328 -7.16625 -4.29975 0 0 1 -3.55246 0
1 147 -7.16625 -7.16625 -4.29975 0 0 1 -3.80051 0
1 148 -5.733 -8.5995 -5.733 0 0 1 -3.25597 0
2 149 -4.29975 -7.16625 -4.29975 0 0 1 -4.3579 0
1 150 -2.8665 -8.5995 -5.733 0 0 1 -3.561 0
2 151 -1.43325 -7.16625 -4.29975 0 0 1 -4.39685 0
1 152 0 -8.5995 -5.733 0 0 1 -3.56073 0
2 153 1.43325 -7.16625 -4.29975 0 0 1 -4.39685 0
1 154 2.8665 -8.5995 -5.733 0 0 1 -3.561 0
2 155 4.29975 -7.16625 -4.29975 0 0 1 -4.3579 0
1 156 5.733 -8.5995 -5.733 0 0 1 -3.25597 0
1 157 7.16625 -7.16625 -4.29975 0 0 1 -3.80051 0
1 158 10.0328 -7.16625 -4.29975 0 0 1 -3.55246 0
1 159 12.8992 -7.16625 -4.29975 0 0 1 -3.26458 0
1 160 -18.6322 -4.29975 -4.29975 0 0 1 -3.0941 0
1 161 -15.7657 -4.29975 -4.29975 0 0 1 -3.66341 0
1 162 -14.3325 -5.733 -5.733 0 0 1 -3.10655 0
2 163 -12.8992 -4.29975 -4.29975 0 0 1 -4.35871 0
1 164 -11.466 -5.733 -5.733 0 0 1 -3.53141 0
2 165 -10.0328 -4.29975 -4.29975 0 0 1 -4.36552 0
1 166 -8.5995 -5.733 -5.733 0 0 1 -3.67397 0
2 167 -7.16625 -4.29975 -4.29975 0 0 1 -4.3513 0
2 168 -5.733 -5.733 -5.733 0 0 1 -4.35592 0
1 169 -4.29975 -4.29975 -4.29975 0 0 1 -4.10647 0
2 170 -2.8665 -5.733 -5.733 0 0 1 -4.37482 0
1 171 -1.43325 -4.29975 -4.29975 0 0 1 -4.08288 0
2 172 0 -5.733 -5.733 0 0 1 -4.39098 0
1 173 1.43325 -4.29975 -4.29975 0 0 1 -4.08288 0
2 174 2.8665 -5.733 -5.733 0 0 1 -4.37482 0
1 175 4.29975 -4.29975 -4.29975 0 0 1 -4.10647 0
2 176 5.733 -5.733 -5.733 0 0 1 -4.35592 0
2 177 7.16625 -4.29975 -4.29975 0 0 1 -4.3513 0
1 178 8.5995 -5.733 -5.733 0 0 1 -3.67397 0
2 179 10.0328 -4.29975 -4.29975 0 0 1 -4.36552 0
1 180 11.466 -5.733 -5.733 0 0 1 -3.53141 0
2 181 12.8992 -4.29975 -4.29975 0 0 1 -4.35871 0
1 182 14.3325 -5.733 -5.733 0 0 1 -3.10655 0
1 183 15.7657 -4.29975 -4.29975 0 0 1 -3.66341 0
1 184 18.6322 -4.29975 -4.29975 0 0 1 -3.0941 0
1 185 -18.6322 -1.43325 -4.29975 0 0 1 -3.6973 0
1 186 -17.199 -2.8665 -5.733 0 0 1 -3.31925 0
2 187 -15.7657 -1.43325 -4.29975 0 0 1 -4.35631 0
1 188 -14.3325 -2.8665 -5.733 0 0 1 -3.7822 0
2 189 -12.8992 -1.43325 -4.29975 0 0 1 -4.37018 0
2 190 -11.466 -2.8665 -5.733 0 0 1 -4.34929 0
1 191 -10.0328 -1.43325 -4.29975 0 0 1 -4.0692 0
2 192 -8.5995 -2.8665 -5.733 0 0 1 -4.36187 0
1 193 -7.16625 -1.43325 -4.29975 0 0 1 -4.05914 0
2 194 -5.733 -2.8665 -5.733 0 0 1 -4.3979 0
1 195 -4.29975 -1.43325 -4.29975 0 0 1 -4.11459 0
1 196 -2.8665 -2.8665 -5.733 0 0 1 -4.10416 0
2 197 -1.43325 -1.43325 -4.29975 0 0 1 -4.38994 0
1 198 0 -2.8665 -5.733 0 0 1 -4.13698 0
2 199 1.43325 -1.43325 -4.29975 0 0 1 -4.38994 0
1 200 2.8665 -2.8665 -5.733 0 0 1 -4.10416 0
1 201 4.29975 -1.43325 -4.29975 0 0 1 -4.11459 0
2 202 5.733 -2.8665 -5.733 0 0 1 -4.3979 0
1 203 7.16625 -1.43325 -4.29975 0 0 1 -4.05914 0
2 204 8.5995 -2.8665 -5.733 0 0 1 -4.36187 0
1 205 10.0328 -1.43325 -4.29975 0 0 1 -4.0692 0
2 206 11.466 -2.8665 -5.733 0 0 1 -4.34929 0
2 207 12.8992 -1.43325 -4.29975 0 0 1 -4.37018 0
1 208 14.3325 -2.8665 -5.733 0 0 1 -3.7822 0
2 209 15.7657 -1.43325 -4.29975 0 0 1 -4.35631 0
1 210 17.199 -2.8665 -5.733 0 0 1 -3.31925 0
1 211 18.6322 -1.43325 -4.29975 0 0 1 -3.6973 0
1 212 -21.4987 1.43325 -4.29975 0 0 1 -2.70548 0
1 213 -20.0655 0 -5.733 0 0 1 -2.70199 0
1 214 -18.6322 1.43325 -4.29975 0 0 1 -3.82076 0
1 215 -17.199 0 -5.733 0 0 1 -3.66738 0
2 216 -15.7657 1.43325 -4.29975 0 0 1 -4.35682 0
1 244 -17.199 2.8665 -5.733 0 0 1 -3.5938 0
2 217 -14.3325 0 -5.733 0 0 1 -4.34036 0
1 218 -12.8992 1.43325 -4.29975 0 0 1 -4.04846 0
1 246 -14.3325 2.8665 -5.733 0 0 1 -4.11981 0
2 219 -11.466 0 -5.733 0 0 1 -4.42923 0
1 220 -10.0328 1.43325 -4.29975 0 0 1 -4.16271 0
2 248 -11.466 2.8665 -5.733 0 0 1 -4.39258 0
1 221 -8.5995 0 -5.733 0 0 1 -4.11035 0
2 222 -7.16625 1.43325 -4.29975 0 0 1 -4.37444 0
1 250 -8.5995 2.8665 -5.733 0 0 1 -4.09777 0
1 223 -5.733 0 -5.733 0 0 1 -4.14534 0
2 224 -4.29975 1.43325 -4.29975 0 0 1 -4.38689 0
1 252 -5.733 2.8665 -5.733 0 0 1 -4.14801 0
1 225 -2.8665 0 -5.733 0 0 1 -4.14144 0
2 226 -1.43325 1.43325 -4.29975 0 0 1 -4.40748 0
1 254 -2.8665 2.8665 -5.733 0 0 1 -4.10699 0
1 227 0 0 -5.733 0 0 1 -4.18907 0
2 228 1.43325 1.43325 -4.29975 0 0 1 -4.40748 0
1 229 2.8665 0 -5.733 0 0 1 -4.14144 0
1 256 0 2.8665 -5.733 0 0 1 -4.10341 0
1 258 2.8665 2.8665 -5.733 0 0 1 -4.10699 0
2 230 4.29975 1.43325 -4.29975 0 0 1 -4.38689 0
1 231 5.733 0 -5.733 0 0 1 -4.14534 0
1 260 5.733 2.8665 -5.733 0 0 1 -4.14801 0
2 232 7.16625 1.43325 -4.29975 0 0 1 -4.37444 0
1 233 8.5995 0 -5.733 0 0 1 -4.11035 0
1 262 8.5995 2.8665 -5.733 0 0 1 -4.09777 0
1 234 10.0328 1.43325 -4.29975 0 0 1 -4.16271 0
2 235 11.466 0 -5.733 0 0 1 -4.42923 0
2 264 11.466 2.8665 -5.733 0 0 1 -4.39258 0
1 236 12.8992 1.43325 -4.29975 0 0 1 -4.04846 0
2 237 14.3325 0 -5.733 0 0 1 -4.34036 0
1 266 14.3325 2.8665 -5.733 0 0 1 -4.11981 0
2 238 15.7657 1.43325 -4.29975 0 0 1 -4.35682 0
1 239 17.199 0 -5.733 0 0 1 -3.66738 0
1 240 18.6322 1.43325 -4.29975 0 0 1 -3.82076 0
1 268 17.199 2.8665 -5.733 0 0 1 -3.5938 0
1 241 20.0655 0 -5.733 0 0 1 -2.70199 0
1 242 21.4987 1.43325 -4.29975 0 0 1 -2.70548 0
1 243 -18.6322 4.29975 -4.29975 0 0 1 -3.50458 0
1 245 -15.7657 4.29975 -4.29975 0 0 1 -4.0433 0
1 270 -17.199 5.733 -5.733 0 0 1 -3.10976 0
2 247 -12.8992 4.29975 -4.29975 0 0 1 -4.36504 0
1 272 -14.3325 5.733 -5.733 0 0 1 -3.74691 0
1 249 -10.0328 4.29975 -4.29975 0 0 1 -4.11031 0
1 274 -11.466 5.733 -5.733 0 0 1 -4.09402 0
1 251 -7.16625 4.29975 -4.29975 0 0 1 -4.07643 0
2 276 -8.5995 5.733 -5.733 0 0 1 -4.37302 0
1 253 -4.29975 4.29975 -4.29975 0 0 1 -4.08593 0
2 278 -5.733 5.733 -5.733 0 0 1 -4.38143 0
1 255 -1.43325 4.29975 -4.29975 0 0 1 -4.08593 0
2 280 -2.8665 5.733 -5.733 0 0 1 -4.39443 0
1 257 1.43325 4.29975 -4.29975 0 0 1 -4.08593 0
2 282 0 5.733 -5.733 0 0 1 -4.39443 0
2 284 2.8665 5.733 -5.733 0 0 1 -4.39443 0
1 259 4.29975 4.29975 -4.29975 0 0 1 -4.08593 0
2 286 5.733 5.733 -5.733 0 0 1 -4.38143 0
1 261 7.16625 4.29975 -4.29975 0 0 1 -4.07643 0
2 288 8.5995 5.733 -5.733 0 0 1 -4.37302 0
1 263 10.0328 4.29975 -4.29975 0 0 1 -4.11031 0
1 290 11.466 5.733 -5.733 0 0 1 -4.09402 0
2 265 12.8992 4.29975 -4.29975 0 0 1 -4.36504 0
1 292 14.3325 5.733 -5.733 0 0 1 -3.74691 0
1 267 15.7657 4.29975 -4.29975 0 0 1 -4.0433 0
1 269 18.6322 4.29975 -4.29975 0 0 1 -3.50458 0
1 294 17.199 5.733 -5.733 0 0 1 -3.10976 0
1 271 -15.7657 7.16625 -4.29975 0 0 1 -3.51907 0
1 273 -12.8992 7.16625 -4.29975 0 0 1 -3.9197 0
2 275 -10.0328 7.16625 -4.29975 0 0 1 -4.38284 0
1 296 -11.466 8.5995 -5.733 0 0 1 -3.46977 0
2 277 -7.16625 7.16625 -4.29975 0 0 1 -4.38061 0
1 298 -8.5995 8.5995 -5.733 0 0 1 -3.53887 0
2 279 -4.29975 7.16625 -4.29975 0 0 1 -4.39438 0
1 300 -5.733 8.5995 -5.733 0 0 1 -3.70843 0
2 281 -1.43325 7.16625 -4.29975 0 0 1 -4.39078 0
1 302 -2.8665 8.5995 -5.733 0 0 1 -3.9849 0
2 283 1.43325 7.16625 -4.29975 0 0 1 -4.39078 0
1 304 0 8.5995 -5.733 0 0 1 -4.1131 0
1 306 2.8665 8.5995 -5.733 0 0 1 -3.9849 0
2 285 4.29975 7.16625 -4.29975 0 0 1 -4.39438 0
1 308 5.733 8.5995 -5.733 0 0 1 -3.70843 0
2 287 7.16625 7.16625 -4.29975 0 0 1 -4.38061 0
1 310 8.5995 8.5995 -5.733 0 0 1 -3.53887 0
2 289 10.0328 7.16625 -4.29975 0 0 1 -4.38284 0
1 312 11.466 8.5995 -5.733 0 0 1 -3.46977 0
1 291 12.8992 7.16625 -4.29975 0 0 1 -3.9197 0
1 293 15.7657 7.16625 -4.29975 0 0 1 -3.51907 0
1 295 -12.8992 10.0328 -4.29975 0 0 1 -2.9095 0
1 297 -10.0328 10.0328 -4.29975 0 0 1 -3.39901 0
1 299 -7.16625 10.0328 -4.29975 0 0 1 -3.58241 0
1 301 -4.29975 10.0328 -4.29975 0 0 1 -3.69344 0
1 303 -1.43325 10.0328 -4.29975 0 0 1 -3.85694 0
1 305 1.43325 10.0328 -4.29975 0 0 1 -3.85694 0
1 314 0 11.466 -5.733 0 0 1 -2.94529 0
1 307 4.29975 10.0328 -4.29975 0 0 1 -3.69344 0
1 309 7.16625 10.0328 -4.29975 0 0 1 -3.58241 0
1 311 10.0328 10.0328 -4.29975 0 0 1 -3.39901 0
1 313 12.8992 10.0328 -4.29975 0 0 1 -2.9095 0
1 315 -10.0328 -10.0328 -1.43325 0 0 1 -3.06682 0
1 316 -7.16625 -10.0328 -1.43325 0 0 1 -3.25879 0
1 317 -4.29975 -10.0328 -1.43325 0 0 1 -3.41333 0
1 318 -1.43325 -10.0328 -1.43325 0 0 1 -3.41753 0
1 319 1.43325 -10.0328 -1.43325 0 0 1 -3.41753 0
1 320 4.29975 -10.0328 -1.43325 0 0 1 -3.41333 0
1 321 7.16625 -10.0328 -1.43325 0 0 1 -3.25879 0
1 322 10.0328 -10.0328 -1.43325 0 0 1 -3.06682 0
1 323 -15.7657 -7.16625 -1.43325 0 0 1 -3.25843 0
1 324 -12.8992 -7.16625 -1.43325 0 0 1 -3.83137 0
1 325 -11.466 -8.5995 -2.8665 0 0 1 -3.25553 0
2 326 -10.0328 -7.16625 -1.43325 0 0 1 -4.36453 0
1 327 -8.5995 -8.5995 -2.8665 0 0 1 -3.57222 0
2 328 -7.16625 -7.16625 -1.43325 0 0 1 -4.38772 0
1 329 -5.733 -8.5995 -2.8665 0 0 1 -3.85935 0
2 330 -4.29975 -7.16625 -1.43325 0 0 1 -4.41932 0
1 331 -2.8665 -8.5995 -2.8665 0 0 1 -4.00139 0
2 332 -1.43325 -7.16625 -1.43325 0 0 1 -4.42169 0
1 333 0 -8.5995 -2.8665 0 0 1 -3.99844 0
2 334 1.43325 -7.16625 -1.43325 0 0 1 -4.42169 0
1 335 2.8665 -8.5995 -2.8665 0 0 1 -4.00139 0
2 336 4.29975 -7.16625 -1.43325 0 0 1 -4.41932 0
1 337 5.733 -8.5995 -2.8665 0 0 1 -3.85935 0
2 338 7.16625 -7.16625 -1.43325 0 0 1 -4.38772 0
1 339 8.5995 -8.5995 -2.8665 0 0 1 -3.57222 0
2 340 10.0328 -7.16625 -1.43325 0 0 1 -4.36453 0
1 341 11.466 -8.5995 -2.8665 0 0 1 -3.25553 0
1 342 12.8992 -7.16625 -1.43325 0 0 1 -3.83137 0
1 343 15.7657 -7.16625 -1.43325 0 0 1 -3.25843 0
1 344 -18.6322 -4.29975 -1.43325 0 0 1 -3.6973 0
1 345 -17.199 -5.733 -2.8665 0 0 1 -3.31925 0
2 346 -15.7657 -4.29975 -1.43325 0 0 1 -4.35631 0
1 347 -14.3325 -5.733 -2.8665 0 0 1 -3.7822 0
2 348 -12.8992 -4.29975 -1.43325 0 0 1 -4.37018 0
2 349 -11.466 -5.733 -2.8665 0 0 1 -4.34929 0
1 350 -10.0328 -4.29975 -1.43325 0 0 1 -4.0692 0
2 351 -8.5995 -5.733 -2.8665 0 0 1 -4.36187 0
1 352 -7.16625 -4.29975 -1.43325 0 0 1 -4.05914 0
2 353 -5.733 -5.733 -2.8665 0 0 1 -4.3979 0
1 354 -4.29975 -4.29975 -1.43325 0 0 1 -4.11459 0
1 355 -2.8665 -5.733 -2.8665 0 0 1 -4.10416 0
2 356 -1.43325 -4.29975 -1.43325 0 0 1 -4.38994 0
1 357 0 -5.733 -2.8665 0 0 1 -4.13698 0
2 358 1.43325 -4.29975 -1.43325 0 0 1 -4.38994 0
1 359 2.8665 -5.733 -2.8665 0 0 1 -4.10416 0
1 360 4.29975 -4.29975 -1.43325 0 0 1 -4.11459 0
2 361 5.733 -5.733 -2.8665 0 0 1 -4.3979 0
1 362 7.16625 -4.29975 -1.43325 0 0 1 -4.05914 0
2 363 8.5995 -5.733 -2.8665 0 0 1 -4.36187 0
1 364 10.0328 -4.29975 -1.43325 0 0 1 -4.0692 0
2 365 11.466 -5.733 -2.8665 0 0 1 -4.34929 0
2 366 12.8992 -4.29975 -1.43325 0 0 1 -4.37018 0
1 367 14.3325 -5.733 -2.8665 0 0 1 -3.7822 0
2 368 15.7657 -4.29975 -1.43325 0 0 1 -4.35631 0
1 369 17.199 -5.733 -2.8665 0 0 1 -3.31925 0
1 370 18.6322 -4.29975 -1.43325 0 0 1 -3.6973 0
1 371 -21.4987 -1.43325 -1.43325 0 0 1 -3.28161 0
1 372 -20.0655 -2.8665 -2.8665 0 0 1 -3.31307 0
2 373 -18.6322 -1.43325 -1.43325 0 0 1 -4.36797 0
1 374 -17.199 -2.8665 -2.8665 0 0 1 -4.03413 0
1 375 -15.7657 -1.43325 -1.43325 0 0 1 -4.0912 0
2 376 -14.3325 -2.8665 -2.8665 0 0 1 -4.31238 0
2 377 -12.8992 -1.43325 -1.43325 0 0 1 -4.42516 0
1 378 -11.466 -2.8665 -2.8665 0 0 1 -4.0218 0
2 379 -10.0328 -1.43325 -1.43325 0 0 1 -4.37658 0
1 380 -8.5995 -2.8665 -2.8665 0 0 1 -4.03606 0
2 381 -7.16625 -1.43325 -1.43325 0 0 1 -4.36706 0
2 382 -5.733 -2.8665 -2.8665 0 0 1 -4.41018 0
1 383 -4.29975 -1.43325 -1.43325 0 0 1 -4.17 0
2 384 -2.8665 -2.8665 -2.8665 0 0 1 -4.41677 0
1 385 -1.43325 -1.43325 -1.43325 0 0 1 -4.13037 0
2 386 0 -2.8665 -2.8665 0 0 1 -4.37412 0
1 387 1.43325 -1.43325 -1.43325 0 0 1 -4.13037 0
2 388 2.8665 -2.8665 -2.8665 0 0 1 -4.41677 0
1 389 4.29975 -1.43325 -1.43325 0 0 1 -4.17 0
2 390 5.733 -2.8665 -2.8665 0 0 1 -4.41018 0
2 391 7.16625 -1.43325 -1.43325 0 0 1 -4.36706 0
1 392 8.5995 -2.8665 -2.8665 0 0 1 -4.03606 0
2 393 10.0328 -1.43325 -1.43325 0 0 1 -4.37658 0
1 394 11.466 -2.8665 -2.8665 0 0 1 -4.0218 0
2 395 12.8992 -1.43325 -1.43325 0 0 1 -4.42516 0
2 396 14.3325 -2.8665 -2.8665 0 0 1 -4.31238 0
1 397 15.7657 -1.43325 -1.43325 0 0 1 -4.0912 0
1 398 17.199 -2.8665 -2.8665 0 0 1 -4.03413 0
2 399 18.6322 -1.43325 -1.43325 0 0 1 -4.36797 0
1 400 20.0655 -2.8665 -2.8665 0 0 1 -3.31307 0
1 401 21.4987 -1.43325 -1.43325 0 0 1 -3.28161 0
1 402 -21.4987 1.43325 -1.43325 0 0 1 -3.71441 0
1 403 -20.0655 0 -2.8665 0 0 1 -3.85065 0
1 434 -20.0655 2.8665 -2.8665 0 0 1 -3.73128 0
2 404 -18.6322 1.43325 -1.43325 0 0 1 -4.3917 0
2 405 -17.199 0 -2.8665 0 0 1 -4.37407 0
1 406 -15.7657 1.43325 -1.43325 0 0 1 -4.00992 0
2 436 -17.199 2.8665 -2.8665 0 0 1 -4.36983 0
1 407 -14.3325 0 -2.8665 0 0 1 -4.00056 0
2 408 -12.8992 1.43325 -1.43325 0 0 1 -4.34644 0
1 438 -14.3325 2.8665 -2.8665 0 0 1 -4.10841 0
2 409 -11.466 0 -2.8665 0 0 1 -4.36825 0
1 410 -10.0328 1.43325 -1.43325 0 0 1 -4.06083 0
1 440 -11.466 2.8665 -2.8665 0 0 1 -4.09408 0
2 411 -8.5995 0 -2.8665 0 0 1 -4.39509 0
1 412 -7.16625 1.43325 -1.43325 0 0 1 -4.10469 0
2 442 -8.5995 2.8665 -2.8665 0 0 1 -4.39026 0
2 413 -5.733 0 -2.8665 0 0 1 -4.4106 0
1 414 -4.29975 1.43325 -1.43325 0 0 1 -4.14323 0
2 444 -5.733 2.8665 -2.8665 0 0 1 -4.38919 0
2 415 -2.8665 0 -2.8665 0 0 1 -4.39429 0
1 416 -1.43325 1.43325 -1.43325 0 0 1 -4.14442 0
2 446 -2.8665 2.8665 -2.8665 0 0 1 -4.39749 0
1 417 0 0 -2.8665 0 0 1 -4.02486 0
1 418 1.43325 1.43325 -1.43325 0 0 1 -4.14442 0
2 419 2.8665 0 -2.8665 0 0 1 -4.39429 0
2 448 0 2.8665 -2.8665 0 0 1 -4.38197 0
2 450 2.8665 2.8665 -2.8665 0 0 1 -4.39749 0
1 420 4.29975 1.43325 -1.43325 0 0 1 -4.14323 0
2 421 5.733 0 -2.8665 0 0 1 -4.4106 0
2 452 5.733 2.8665 -2.8665 0 0 1 -4.38919 0
1 422 7.16625 1.43325 -1.43325 0 0 1 -4.10469 0
2 423 8.5995 0 -2.8665 0 0 1 -4.39509 0
2 454 8.5995 2.8665 -2.8665 0 0 1 -4.39026 0
1 424 10.0328 1.43325 -1.43325 0 0 1 -4.06083 0
2 425 11.466 0 -2.8665 0 0 1 -4.36825 0
1 456 11.466 2.8665 -2.8665 0 0 1 -4.09408 0
2 426 12.8992 1.43325 -1.43325 0 0 1 -4.34644 0
1 427 14.3325 0 -2.8665 0 0 1 -4.00056 0
1 458 14.3325 2.8665 -2.8665 0 0 1 -4.10841 0
1 428 15.7657 1.43325 -1.43325 0 0 1 -4.00992 0
2 429 17.199 0 -2.8665 0 0 1 -4.37407 0
2 430 18.6322 1.43325 -1.43325 0 0 1 -4.3917 0
2 460 17.199 2.8665 -2.8665 0 0 1 -4.36983 0
1 431 20.0655 0 -2.8665 0 0 1 -3.85065 0
1 432 21.4987 1.43325 -1.43325 0 0 1 -3.71441 0
1 462 20.0655 2.8665 -2.8665 0 0 1 -3.73128 0
1 433 -21.4987 4.29975 -1.43325 0 0 1 -3.3092 0
1 464 -20.0655 5.733 -2.8665 0 0 1 -3.10976 0
1 435 -18.6322 4.29975 -1.43325 0 0 1 -4.05075 0
2 437 -15.7657 4.29975 -1.43325 0 0 1 -4.33245 0
1 466 -17.199 5.733 -2.8665 0 0 1 -3.91801 0
1 439 -12.8992 4.29975 -1.43325 0 0 1 -3.95744 0
2 468 -14.3325 5.733 -2.8665 0 0 1 -4.35693 0
2 441 -10.0328 4.29975 -1.43325 0 0 1 -4.39036 0
1 470 -11.466 5.733 -2.8665 0 0 1 -4.20312 0
2 443 -7.16625 4.29975 -1.43325 0 0 1 -4.39296 0
1 472 -8.5995 5.733 -2.8665 0 0 1 -4.06598 0
2 445 -4.29975 4.29975 -1.43325 0 0 1 -4.40289 0
1 474 -5.733 5.733 -2.8665 0 0 1 -4.09035 0
2 447 -1.43325 4.29975 -1.43325 0 0 1 -4.40043 0
1 476 -2.8665 5.733 -2.8665 0 0 1 -4.08209 0
2 449 1.43325 4.29975 -1.43325 0 0 1 -4.40043 0
1 478 0 5.733 -2.8665 0 0 1 -4.083 0
1 480 2.8665 5.733 -2.8665 0 0 1 -4.08209 0
2 451 4.29975 4.29975 -1.43325 0 0 1 -4.40289 0
1 482 5.733 5.733 -2.8665 0 0 1 -4.09035 0
2 453 7.16625 4.29975 -1.43325 0 0 1 -4.39296 0
1 484 8.5995 5.733 -2.8665 0 0 1 -4.06598 0
2 455 10.0328 4.29975 -1.43325 0 0 1 -4.39036 0
1 486 11.466 5.733 -2.8665 0 0 1 -4.20312 0
1 457 12.8992 4.29975 -1.43325 0 0 1 -3.95744 0
2 488 14.3325 5.733 -2.8665 0 0 1 -4.35693 0
2 459 15.7657 4.29975 -1.43325 0 0 1 -4.33245 0
1 461 18.6322 4.29975 -1.43325 0 0 1 -4.05075 0
1 490 17.199 5.733 -2.8665 0 0 1 -3.91801 0
1 463 21.4987 4.29975 -1.43325 0 0 1 -3.3092 0
1 492 20.0655 5.733 -2.8665 0 0 1 -3.10976 0
1 465 -18.6322 7.16625 -1.43325 0 0 1 -3.48341 0
1 467 -15.7657 7.16625 -1.43325 0 0 1 -4.09254 0
1 493 -17.199 8.5995 -2.8665 0 0 1 -3.11138 0
2 469 -12.8992 7.16625 -1.43325 0 0 1 -4.38417 0
1 495 -14.3325 8.5995 -2.8665 0 0 1 -3.72145 0
1 471 -10.0328 7.16625 -1.43325 0 0 1 -4.10037 0
1 497 -11.466 8.5995 -2.8665 0 0 1 -3.9743 0
1 473 -7.16625 7.16625 -1.43325 0 0 1 -4.14892 0
2 499 -8.5995 8.5995 -2.8665 0 0 1 -4.36526 0
1 475 -4.29975 7.16625 -1.43325 0 0 1 -4.10507 0
2 501 -5.733 8.5995 -2.8665 0 0 1 -4.39307 0
1 477 -1.43325 7.16625 -1.43325 0 0 1 -4.1162 0
2 503 -2.8665 8.5995 -2.8665 0 0 1 -4.37077 0
1 479 1.43325 7.16625 -1.43325 0 0 1 -4.1162 0
2 505 0 8.5995 -2.8665 0 0 1 -4.39821 0
2 507 2.8665 8.5995 -2.8665 0 0 1 -4.37077 0
1 481 4.29975 7.16625 -1.43325 0 0 1 -4.10507 0
2 509 5.733 8.5995 -2.8665 0 0 1 -4.39307 0
1 483 7.16625 7.16625 -1.43325 0 0 1 -4.14892 0
2 511 8.5995 8.5995 -2.8665 0 0 1 -4.36526 0
1 485 10.0328 7.16625 -1.43325 0 0 1 -4.10037 0
1 513 11.466 8.5995 -2.8665 0 0 1 -3.9743 0
2 487 12.8992 7.16625 -1.43325 0 0 1 -4.38417 0
1 515 14.3325 8.5995 -2.8665 0 0 1 -3.72145 0
1 489 15.7657 7.16625 -1.43325 0 0 1 -4.09254 0
1 491 18.6322 7.16625 -1.43325 0 0 1 -3.48341 0
1 517 17.199 8.5995 -2.8665 0 0 1 -3.11138 0
1 494 -15.7657 10.0328 -1.43325 0 0 1 -3.11101 0
1 496 -12.8992 10.0328 -1.43325 0 0 1 -3.55872 0
1 498 -10.0328 10.0328 -1.43325 0 0 1 -3.91533 0
1 500 -7.16625 10.0328 -1.43325 0 0 1 -3.97712 0
1 518 -8.5995 11.466 -2.8665 0 0 1 -3.07864 0
2 502 -4.29975 10.0328 -1.43325 0 0 1 -4.36302 0
1 519 -5.733 11.466 -2.8665 0 0 1 -3.41475 0
2 504 -1.43325 10.0328 -1.43325 0 0 1 -4.39879 0
1 521 -2.8665 11.466 -2.8665 0 0 1 -3.57488 0
2 506 1.43325 10.0328 -1.43325 0 0 1 -4.39879 0
1 523 0 11.466 -2.8665 0 0 1 -3.70123 0
1 525 2.8665 11.466 -2.8665 0 0 1 -3.57488 0
2 508 4.29975 10.0328 -1.43325 0 0 1 -4.36302 0
1 527 5.733 11.466 -2.8665 0 0 1 -3.41475 0
1 510 7.16625 10.0328 -1.43325 0 0 1 -3.97712 0
1 528 8.5995 11.466 -2.8665 0 0 1 -3.07864 0
1 512 10.0328 10.0328 -1.43325 0 0 1 -3.91533 0
1 514 12.8992 10.0328 -1.43325 0 0 1 -3.55872 0
1 516 15.7657 10.0328 -1.43325 0 0 1 -3.11101 0
1 520 -4.29975 12.8992 -1.43325 0 0 1 -3.07924 0
1 522 -1.43325 12.8992 -1.43325 0 0 1 -3.2487 0
1 524 1.43325 12.8992 -1.43325 0 0 1 -3.2487 0
1 526 4.29975 12.8992 -1.43325 0 0 1 -3.07924 0
1 529 -10.0328 -10.0328 1.43325 0 0 1 -3.08214 0
1 530 -7.16625 -10.0328 1.43325 0 0 1 -3.42256 0
1 531 -4.29975 -10.0328 1.43325 0 0 1 -3.41928 0
1 532 -1.43325 -10.0328 1.43325 0 0 1 -3.40348 0
1 533 1.43325 -10.0328 1.43325 0 0 1 -3.40348 0
1 534 4.29975 -10.0328 1.43325 0 0 1 -3.41928 0
1 535 7.16625 -10.0328 1.43325 0 0 1 -3.42256 0
1 536 10.0328 -10.0328 1.43325 0 0 1 -3.08214 0
1 537 -15.7657 -7.16625 1.43325 0 0 1 -3.55969 0
1 538 -14.3325 -8.5995 0 0 0 1 -3.06703 0
1 539 -12.8992 -7.16625 1.43325 0 0 1 -4.03151 0
1 764 -14.3325 -8.5995 2.8665 0 0 1 -3.12104 0
1 540 -11.466 -8.5995 0 0 0 1 -3.72458 0
2 541 -10.0328 -7.16625 1.43325 0 0 1 -4.37047 0
1 766 -11.466 -8.5995 2.8665 0 0 1 -3.55838 0
1 542 -8.5995 -8.5995 0 0 0 1 -4.03923 0
2 543 -7.16625 -7.16625 1.43325 0 0 1 -4.45402 0
1 768 -8.5995 -8.5995 2.8665 0 0 1 -3.90815 0
1 544 -5.733 -8.5995 0 0 0 1 -3.99144 0
2 545 -4.29975 -7.16625 1.43325 0 0 1 -4.42091 0
1 770 -5.733 -8.5995 2.8665 0 0 1 -3.9929 0
2 546 -2.8665 -8.5995 0 0 0 1 -4.24722 0
2 547 -1.43325 -7.16625 1.43325 0 0 1 -4.39528 0
2 772 -2.8665 -8.5995 2.8665 0 0 1 -4.24074 0
2 548 0 -8.5995 0 0 0 1 -4.2525 0
2 549 1.43325 -7.16625 1.43325 0 0 1 -4.39528 0
2 550 2.8665 -8.5995 0 0 0 1 -4.24722 0
2 774 0 -8.5995 2.8665 0 0 1 -4.24553 0
2 776 2.8665 -8.5995 2.8665 0 0 1 -4.24074 0
2 551 4.29975 -7.16625 1.43325 0 0 1 -4.42091 0
1 552 5.733 -8.5995 0 0 0 1 -3.99144 0
1 778 5.733 -8.5995 2.8665 0 0 1 -3.9929 0
2 553 7.16625 -7.16625 1.43325 0 0 1 -4.45402 0
1 554 8.5995 -8.5995 0 0 0 1 -4.03923 0
1 780 8.5995 -8.5995 2.8665 0 0 1 -3.90815 0
2 555 10.0328 -7.16625 1.43325 0 0 1 -4.37047 0
1 556 11.466 -8.5995 0 0 0 1 -3.72458 0
1 782 11.466 -8.5995 2.8665 0 0 1 -3.55838 0
1 557 12.8992 -7.16625 1.43325 0 0 1 -4.03151 0
1 558 14.3325 -8.5995 0 0 0 1 -3.06703 0
1 784 14.3325 -8.5995 2.8665 0 0 1 -3.12104 0
1 559 15.7657 -7.16625 1.43325 0 0 1 -3.55969 0
1 560 -21.4987 -4.29975 1.43325 0 0 1 -2.70548 0
1 561 -20.0655 -5.733 0 0 0 1 -2.70199 0
1 562 -18.6322 -4.29975 1.43325 0 0 1 -3.82076 0
1 563 -17.199 -5.733 0 0 0 1 -3.66738 0
2 564 -15.7657 -4.29975 1.43325 0 0 1 -4.35682 0
1 787 -17.199 -5.733 2.8665 0 0 1 -3.5938 0
2 565 -14.3325 -5.733 0 0 0 1 -4.34036 0
1 566 -12.8992 -4.29975 1.43325 0 0 1 -4.04846 0
1 789 -14.3325 -5.733 2.8665 0 0 1 -4.11981 0
2 567 -11.466 -5.733 0 0 0 1 -4.42923 0
1 568 -10.0328 -4.29975 1.43325 0 0 1 -4.16271 0
2 791 -11.466 -5.733 2.8665 0 0 1 -4.39258 0
1 569 -8.5995 -5.733 0 0 0 1 -4.11035 0
2 570 -7.16625 -4.29975 1.43325 0 0 1 -4.37444 0
1 793 -8.5995 -5.733 2.8665 0 0 1 -4.09777 0
1 571 -5.733 -5.733 0 0 0 1 -4.14534 0
2 572 -4.29975 -4.29975 1.43325 0 0 1 -4.38689 0
1 795 -5.733 -5.733 2.8665 0 0 1 -4.14801 0
1 573 -2.8665 -5.733 0 0 0 1 -4.14144 0
2 574 -1.43325 -4.29975 1.43325 0 0 1 -4.40748 0
1 797 -2.8665 -5.733 2.8665 0 0 1 -4.10699 0
1 575 0 -5.733 0 0 0 1 -4.18907 0
2 576 1.43325 -4.29975 1.43325 0 0 1 -4.40748 0
1 577 2.8665 -5.733 0 0 0 1 -4.14144 0
1 799 0 -5.733 2.8665 0 0 1 -4.10341 0
1 801 2.8665 -5.733 2.8665 0 0 1 -4.10699 0
2 578 4.29975 -4.29975 1.43325 0 0 1 -4.38689 0
1 579 5.733 -5.733 0 0 0 1 -4.14534 0
1 803 5.733 -5.733 2.8665 0 0 1 -4.14801 0
2 580 7.16625 -4.29975 1.43325 0 0 1 -4.37444 0
1 581 8.5995 -5.733 0 0 0 1 -4.11035 0
1 805 8.5995 -5.733 2.8665 0 0 1 -4.09777 0
1 582 10.0328 -4.29975 1.43325 0 0 1 -4.16271 0
2 583 11.466 -5.733 0 0 0 1 -4.42923 0
2 807 11.466 -5.733 2.8665 0 0 1 -4.39258 0
1 584 12.8992 -4.29975 1.43325 0 0 1 -4.04846 0
2 585 14.3325 -5.733 0 0 0 1 -4.34036 0
1 809 14.3325 -5.733 2.8665 0 0 1 -4.11981 0
2 586 15.7657 -4.29975 1.43325 0 0 1 -4.35682 0
1 587 17.199 -5.733 0 0 0 1 -3.66738 0
1 588 18.6322 -4.29975 1.43325 0 0 1 -3.82076 0
1 811 17.199 -5.733 2.8665 0 0 1 -3.5938 0
1 589 20.0655 -5.733 0 0 0 1 -2.70199 0
1 590 21.4987 -4.29975 1.43325 0 0 1 -2.70548 0
1 591 -21.4987 -1.43325 1.43325 0 0 1 -3.71441 0
1 592 -20.0655 -2.8665 0 0 0 1 -3.85065 0
1 814 -20.0655 -2.8665 2.8665 0 0 1 -3.73128 0
2 593 -18.6322 -1.43325 1.43325 0 0 1 -4.3917 0
2 594 -17.199 -2.8665 0 0 0 1 -4.37407 0
1 595 -15.7657 -1.43325 1.43325 0 0 1 -4.00992 0
2 816 -17.199 -2.8665 2.8665 0 0 1 -4.36983 0
1 596 -14.3325 -2.8665 0 0 0 1 -4.00056 0
2 597 -12.8992 -1.43325 1.43325 0 0 1 -4.34644 0
1 818 -14.3325 -2.8665 2.8665 0 0 1 -4.10841 0
2 598 -11.466 -2.8665 0 0 0 1 -4.36825 0
1 599 -10.0328 -1.43325 1.43325 0 0 1 -4.06083 0
1 820 -11.466 -2.8665 2.8665 0 0 1 -4.09408 0
2 600 -8.5995 -2.8665 0 0 0 1 -4.39509 0
1 601 -7.16625 -1.43325 1.43325 0 0 1 -4.10469 0
2 822 -8.5995 -2.8665 2.8665 0 0 1 -4.39026 0
2 602 -5.733 -2.8665 0 0 0 1 -4.4106 0
1 603 -4.29975 -1.43325 1.43325 0 0 1 -4.14323 0
2 824 -5.733 -2.8665 2.8665 0 0 1 -4.38919 0
2 604 -2.8665 -2.8665 0 0 0 1 -4.39429 0
1 605 -1.43325 -1.43325 1.43325 0 0 1 -4.14442 0
2 826 -2.8665 -2.8665 2.8665 0 0 1 -4.39749 0
1 606 0 -2.8665 0 0 0 1 -4.02486 0
1 607 1.43325 -1.43325 1.43325 0 0 1 -4.14442 0
2 608 2.8665 -2.8665 0 0 0 1 -4.39429 0
2 828 0 -2.8665 2.8665 0 0 1 -4.38197 0
2 830 2.8665 -2.8665 2.8665 0 0 1 -4.39749 0
1 609 4.29975 -1.43325 1.43325 0 0 1 -4.14323 0
2 610 5.733 -2.8665 0 0 0 1 -4.4106 0
2 832 5.733 -2.8665 2.8665 0 0 1 -4.38919 0
1 611 7.16625 -1.43325 1.43325 0 0 1 -4.10469 0