ITEM: TIMESTEP
0
ITEM: NUMBER OF ATOMS
1241
ITEM: BOX BOUNDS pp pp pp
-2.5000000000000000e+01 2.5000000000000000e+01
-2.5000000000000000e+01 2.5000000000000000e+01
-2.5000000000000000e+01 2.5000000000000000e+01
ITEM: ATOMS type id x y z c_outsp[1] c_outsp[2] c_outsp[3] c_peAtom c_keAtom
1 1 -7.16625 -10.0328 -12.8992 0 0 1 -3.08273 0
1 2 -4.29975 -10.0328 -12.8992 0 0 1 -3.59394 0
1 3 -2.8665 -11.466 -14.3325 0 0 1 -2.61147 0
1 4 -1.43325 -10.0328 -12.8992 0 0 1 -3.87649 0
1 5 0 -11.466 -14.3325 0 0 1 -2.81739 0
1 6 1.43325 -10.0328 -12.8992 0 0 1 -3.87649 0
1 7 2.8665 -11.466 -14.3325 0 0 1 -2.61147 0
1 8 4.29975 -10.0328 -12.8992 0 0 1 -3.59394 0
1 9 7.16625 -10.0328 -12.8992 0 0 1 -3.08273 0
1 10 -10.0328 -7.16625 -12.8992 0 0 1 -3.08273 0
1 11 -8.5995 -8.5995 -14.3325 0 0 1 -2.8528 0
1 12 -7.16625 -7.16625 -12.8992 0 0 1 -4.03209 0
1 13 -5.733 -8.5995 -14.3325 0 0 1 -3.26736 0
1 14 -4.29975 -7.16625 -12.8992 0 0 1 -4.04486 0
1 15 -2.8665 -8.5995 -14.3325 0 0 1 -3.43515 0
1 16 -1.43325 -7.16625 -12.8992 0 0 1 -4.04425 0
1 17 0 -8.5995 -14.3325 0 0 1 -3.44803 0
1 18 1.43325 -7.16625 -12.8992 0 0 1 -4.04425 0
1 19 2.8665 -8.5995 -14.3325 0 0 1 -3.43515 0
1 20 4.29975 -7.16625 -12.8992 0 0 1 -4.04486 0
1 21 5.733 -8.5995 -14.3325 0 0 1 -3.26736 0
1 22 7.16625 -7.16625 -12.8992 0 0 1 -4.03209 0
1 23 8.5995 -8.5995 -14.3325 0 0 1 -2.8528 0
1 24 10.0328 -7.16625 -12.8992 0 0 1 -3.08273 0
1 25 -10.0328 -4.29975 -12.8992 0 0 1 -3.59394 0
1 26 -8.5995 -5.733 -14.3325 0 0 1 -3.26736 0
1 27 -7.16625 -4.29975 -12.8992 0 0 1 -4.04486 0
1 28 -5.733 -5.733 -14.3325 0 0 1 -3.44918 0
1 29 -4.29975 -4.29975 -12.8992 0 0 1 -4.04425 0
1 30 -2.8665 -5.733 -14.3325 0 0 1 -3.44918 0
1 31 -1.43325 -4.29975 -12.8992 0 0 1 -4.04425 0
1 32 0 -5.733 -14.3325 0 0 1 -3.44918 0
1 33 1.43325 -4.29975 -12.8992 0 0 1 -4.04425 0
1 34 2.8665 -5.733 -14.3325 0 0 1 -3.44918 0
1 35 4.29975 -4.29975 -12.8992 0 0 1 -4.04425 0
1 36 5.733 -5.733 -14.3325 0 0 1 -3.44918 0
1 37 7.16625 -4.29975 -12.8992 0 0 1 -4.04486 0
1 38 8.5995 -5.733 -14.3325 0 0 1 -3.26736 0
1 39 10.0328 -4.29975 -12.8992 0 0 1 -3.59394 0
1 40 -11.466 -2.8665 -14.3325 0 0 1 -2.61147 0
1 41 -10.0328 -1.43325 -12.8992 0 0 1 -3.87649 0
1 42 -8.5995 -2.8665 -14.3325 0 0 1 -3.43515 0
1 43 -7.16625 -1.43325 -12.8992 0 0 1 -4.04425 0
1 44 -5.733 -2.8665 -14.3325 0 0 1 -3.44918 0
1 45 -4.29975 -1.43325 -12.8992 0 0 1 -4.04425 0
1 46 -2.8665 -2.8665 -14.3325 0 0 1 -3.44918 0
1 47 -1.43325 -1.43325 -12.8992 0 0 1 -4.04543 0
1 48 0 -2.8665 -14.3325 0 0 1 -3.44918 0
1 49 1.43325 -1.43325 -12.8992 0 0 1 -4.04543 0
1 50 2.8665 -2.8665 -14.3325 0 0 1 -3.44918 0
1 51 4.29975 -1.43325 -12.8992 0 0 1 -4.04425 0
1 52 5.733 -2.8665 -14.3325 0 0 1 -3.44918 0
1 53 7.16625 -1.43325 -12.8992 0 0 1 -4.04425 0
1 54 8.5995 -2.8665 -14.3325 0 0 1 -3.43515 0
1 55 10.0328 -1.43325 -12.8992 0 0 1 -3.87649 0
1 56 11.466 -2.8665 -14.3325 0 0 1 -2.61147 0
1 57 -11.466 0 -14.3325 0 0 1 -2.81739 0
1 58 -10.0328 1.43325 -12.8992 0 0 1 -3.87649 0
1 74 -11.466 2.8665 -14.3325 0 0 1 -2.61147 0
1 59 -8.5995 0 -14.3325 0 0 1 -3.44803 0
1 60 -7.16625 1.43325 -12.8992 0 0 1 -4.04425 0
1 76 -8.5995 2.8665 -14.3325 0 0 1 -3.43515 0
1 61 -5.733 0 -14.3325 0 0 1 -3.44918 0
1 62 -4.29975 1.43325 -12.8992 0 0 1 -4.04425 0
1 78 -5.733 2.8665 -14.3325 0 0 1 -3.44918 0
1 63 -2.8665 0 -14.3325 0 0 1 -3.44918 0
1 64 -1.43325 1.43325 -12.8992 0 0 1 -4.04543 0
1 80 -2.8665 2.8665 -14.3325 0 0 1 -3.44918 0
1 65 0 0 -14.3325 0 0 1 -3.44918 0
1 66 1.43325 1.43325 -12.8992 0 0 1 -4.04543 0
1 67 2.8665 0 -14.3325 0 0 1 -3.44918 0
1 82 0 2.8665 -14.3325 0 0 1 -3.44918 0
1 84 2.8665 2.8665 -14.3325 0 0 1 -3.44918 0
1 68 4.29975 1.43325 -12.8992 0 0 1 -4.04425 0
1 69 5.733 0 -14.3325 0 0 1 -3.44918 0
1 86 5.733 2.8665 -14.3325 0 0 1 -3.44918 0
1 70 7.16625 1.43325 -12.8992 0 0 1 -4.04425 0
1 71 8.5995 0 -14.3325 0 0 1 -3.44803 0
1 88 8.5995 2.8665 -14.3325 0 0 1 -3.43515 0
1 72 10.0328 1.43325 -12.8992 0 0 1 -3.87649 0
1 73 11.466 0 -14.3325 0 0 1 -2.81739 0
1 90 11.466 2.8665 -14.3325 0 0 1 -2.61147 0
1 75 -10.0328 4.29975 -12.8992 0 0 1 -3.59394 0
1 77 -7.16625 4.29975 -12.8992 0 0 1 -4.04486 0
1 92 -8.5995 5.733 -14.3325 0 0 1 -3.26736 0
1 79 -4.29975 4.29975 -12.8992 0 0 1 -4.04425 0
1 94 -5.733 5.733 -14.3325 0 0 1 -3.44918 0
1 81 -1.43325 4.29975 -12.8992 0 0 1 -4.04425 0
1 96 -2.8665 5.733 -14.3325 0 0 1 -3.44918 0
1 83 1.43325 4.29975 -12.8992 0 0 1 -4.04425 0
1 98 0 5.733 -14.3325 0 0 1 -3.44918 0
1 100 2.8665 5.733 -14.3325 0 0 1 -3.44918 0
1 85 4.29975 4.29975 -12.8992 0 0 1 -4.04425 0
1 102 5.733 5.733 -14.3325 0 0 1 -3.44918 0
1 87 7.16625 4.29975 -12.8992 0 0 1 -4.04486 0
1 104 8.5995 5.733 -14.3325 0 0 1 -3.26736 0
1 89 10.0328 4.29975 -12.8992 0 0 1 -3.59394 0
1 91 -10.0328 7.16625 -12.8992 0 0 1 -3.08273 0
1 93 -7.16625 7.16625 -12.8992 0 0 1 -4.03209 0
1 106 -8.5995 8.5995 -14.3325 0 0 1 -2.8528 0
1 95 -4.29975 7.16625 -12.8992 0 0 1 -4.04486 0
1 108 -5.733 8.5995 -14.3325 0 0 1 -3.26736 0
1 97 -1.43325 7.16625 -12.8992 0 0 1 -4.04425 0
1 110 -2.8665 8.5995 -14.3325 0 0 1 -3.43515 0
1 99 1.43325 7.16625 -12.8992 0 0 1 -4.04425 0
1 112 0 8.5995 -14.3325 0 0 1 -3.44803 0
1 114 2.8665 8.5995 -14.3325 0 0 1 -3.43515 0
1 101 4.29975 7.16625 -12.8992 0 0 1 -4.04486 0
1 116 5.733 8.5995 -14.3325 0 0 1 -3.26736 0
1 103 7.16625 7.16625 -12.8992 0 0 1 -4.03209 0
1 118 8.5995 8.5995 -14.3325 0 0 1 -2.8528 0
1 105 10.0328 7.16625 -12.8992 0 0 1 -3.08273 0
1 107 -7.16625 10.0328 -12.8992 0 0 1 -3.08273 0
1 109 -4.29975 10.0328 -12.8992 0 0 1 -3.59394 0
1 111 -1.43325 10.0328 -12.8992 0 0 1 -3.87649 0
1 119 -2.8665 11.466 -14.3325 0 0 1 -2.61147 0
1 113 1.43325 10.0328 -12.8992 0 0 1 -3.87649 0
1 120 0 11.466 -14.3325 0 0 1 -2.81739 0
1 121 2.8665 11.466 -14.3325 0 0 1 -2.61147 0
1 115 4.29975 10.0328 -12.8992 0 0 1 -3.59394 0
1 117 7.16625 10.0328 -12.8992 0 0 1 -3.08273 0
1 122 -7.16625 -10.0328 -10.0328 0 0 1 -3.2648 0
1 123 -4.29975 -10.0328 -10.0328 0 0 1 -3.76934 0
1 124 -2.8665 -11.466 -11.466 0 0 1 -3.27608 0
1 125 -1.43325 -10.0328 -10.0328 0 0 1 -4.03989 0
1 126 0 -11.466 -11.466 0 0 1 -3.45475 0
1 127 1.43325 -10.0328 -10.0328 0 0 1 -4.03989 0
1 128 2.8665 -11.466 -11.466 0 0 1 -3.27608 0
1 129 4.29975 -10.0328 -10.0328 0 0 1 -3.76934 0
1 130 7.16625 -10.0328 -10.0328 0 0 1 -3.2648 0
1 131 -10.0328 -7.16625 -10.0328 0 0 1 -3.2648 0
1 132 -8.5995 -8.5995 -11.466 0 0 1 -3.59364 0
1 133 -7.16625 -7.16625 -10.0328 0 0 1 -4.2157 0
1 134 -5.733 -8.5995 -11.466 0 0 1 -4.07144 0
1 135 -4.29975 -7.16625 -10.0328 0 0 1 -4.17873 0
1 136 -2.8665 -8.5995 -11.466 0 0 1 -4.17953 0
1 137 -1.43325 -7.16625 -10.0328 0 0 1 -4.18003 0
1 138 0 -8.5995 -11.466 0 0 1 -4.199 0
1 139 1.43325 -7.16625 -10.0328 0 0 1 -4.18003 0
1 140 2.8665 -8.5995 -11.466 0 0 1 -4.17953 0
1 141 4.29975 -7.16625 -10.0328 0 0 1 -4.17873 0
1 142 5.733 -8.5995 -11.466 0 0 1 -4.07144 0
1 143 7.16625 -7.16625 -10.0328 0 0 1 -4.2157 0
1 144 8.5995 -8.5995 -11.466 0 0 1 -3.59364 0
1 145 10.0328 -7.16625 -10.0328 0 0 1 -3.2648 0
1 146 -10.0328 -4.29975 -10.0328 0 0 1 -3.76934 0
1 147 -8.5995 -5.733 -11.466 0 0 1 -4.07144 0
1 148 -7.16625 -4.29975 -10.0328 0 0 1 -4.17873 0
1 149 -5.733 -5.733 -11.466 0 0 1 -4.19214 0
1 150 -4.29975 -4.29975 -10.0328 0 0 1 -4.18472 0
1 151 -2.8665 -5.733 -11.466 0 0 1 -4.20335 0
1 152 -1.43325 -4.29975 -10.0328 0 0 1 -4.16336 0
1 153 0 -5.733 -11.466 0 0 1 -4.20244 0
1 154 1.43325 -4.29975 -10.0328 0 0 1 -4.16336 0
1 155 2.8665 -5.733 -11.466 0 0 1 -4.20335 0
1 156 4.29975 -4.29975 -10.0328 0 0 1 -4.18472 0
1 157 5.733 -5.733 -11.466 0 0 1 -4.19214 0
1 158 7.16625 -4.29975 -10.0328 0 0 1 -4.17873 0
1 159 8.5995 -5.733 -11.466 0 0 1 -4.07144 0
1 160 10.0328 -4.29975 -10.0328 0 0 1 -3.76934 0
1 161 -11.466 -2.8665 -11.466 0 0 1 -3.27608 0
1 162 -10.0328 -1.43325 -10.0328 0 0 1 -4.03989 0
1 163 -8.5995 -2.8665 -11.466 0 0 1 -4.17953 0
1 164 -7.16625 -1.43325 -10.0328 0 0 1 -4.18003 0
1 165 -5.733 -2.8665 -11.466 0 0 1 -4.20335 0
1 166 -4.29975 -1.43325 -10.0328 0 0 1 -4.16336 0
1 167 -2.8665 -2.8665 -11.466 0 0 1 -4.20441 0
1 168 -1.43325 -1.43325 -10.0328 0 0 1 -3.92893 0
1 169 0 -2.8665 -11.466 0 0 1 -4.18562 0
1 170 1.43325 -1.43325 -10.0328 0 0 1 -3.92893 0
1 171 2.8665 -2.8665 -11.466 0 0 1 -4.20441 0
1 172 4.29975 -1.43325 -10.0328 0 0 1 -4.16336 0
1 173 5.733 -2.8665 -11.466 0 0 1 -4.20335 0
1 174 7.16625 -1.43325 -10.0328 0 0 1 -4.18003 0
1 175 8.5995 -2.8665 -11.466 0 0 1 -4.17953 0
1 176 10.0328 -1.43325 -10.0328 0 0 1 -4.03989 0
1 177 11.466 -2.8665 -11.466 0 0 1 -3.27608 0
1 178 -11.466 0 -11.466 0 0 1 -3.45475 0
1 179 -10.0328 1.43325 -10.0328 0 0 1 -4.03989 0
1 195 -11.466 2.8665 -11.466 0 0 1 -3.27608 0
1 180 -8.5995 0 -11.466 0 0 1 -4.199 0
1 181 -7.16625 1.43325 -10.0328 0 0 1 -4.18003 0
1 197 -8.5995 2.8665 -11.466 0 0 1 -4.17953 0
1 182 -5.733 0 -11.466 0 0 1 -4.20244 0
1 183 -4.29975 1.43325 -10.0328 0 0 1 -4.16336 0
1 199 -5.733 2.8665 -11.466 0 0 1 -4.20335 0
1 184 -2.8665 0 -11.466 0 0 1 -4.18562 0
1 185 -1.43325 1.43325 -10.0328 0 0 1 -3.92893 0
1 201 -2.8665 2.8665 -11.466 0 0 1 -4.20441 0
1 186 0 0 -11.466 0 0 1 -4.12327 0
1 187 1.43325 1.43325 -10.0328 0 0 1 -3.92893 0
1 188 2.8665 0 -11.466 0 0 1 -4.18562 0
1 203 0 2.8665 -11.466 0 0 1 -4.18562 0
1 205 2.8665 2.8665 -11.466 0 0 1 -4.20441 0
1 189 4.29975 1.43325 -10.0328 0 0 1 -4.16336 0
1 190 5.733 0 -11.466 0 0 1 -4.20244 0
1 207 5.733 2.8665 -11.466 0 0 1 -4.20335 0
1 191 7.16625 1.43325 -10.0328 0 0 1 -4.18003 0
1 192 8.5995 0 -11.466 0 0 1 -4.199 0
1 209 8.5995 2.8665 -11.466 0 0 1 -4.17953 0
1 193 10.0328 1.43325 -10.0328 0 0 1 -4.03989 0
1 194 11.466 0 -11.466 0 0 1 -3.45475 0
1 211 11.466 2.8665 -11.466 0 0 1 -3.27608 0
1 196 -10.0328 4.29975 -10.0328 0 0 1 -3.76934 0
1 198 -7.16625 4.29975 -10.0328 0 0 1 -4.17873 0
1 213 -8.5995 5.733 -11.466 0 0 1 -4.07144 0
1 200 -4.29975 4.29975 -10.0328 0 0 1 -4.18472 0
1 215 -5.733 5.733 -11.466 0 0 1 -4.19214 0
1 202 -1.43325 4.29975 -10.0328 0 0 1 -4.16336 0
1 217 -2.8665 5.733 -11.466 0 0 1 -4.20335 0
1 204 1.43325 4.29975 -10.0328 0 0 1 -4.16336 0
1 219 0 5.733 -11.466 0 0 1 -4.20244 0
1 221 2.8665 5.733 -11.466 0 0 1 -4.20335 0
1 206 4.29975 4.29975 -10.0328 0 0 1 -4.18472 0
1 223 5.733 5.733 -11.466 0 0 1 -4.19214 0
1 208 7.16625 4.29975 -10.0328 0 0 1 -4.17873 0
1 225 8.5995 5.733 -11.466 0 0 1 -4.07144 0
1 210 10.0328 4.29975 -10.0328 0 0 1 -3.76934 0
1 212 -10.0328 7.16625 -10.0328 0 0 1 -3.2648 0
1 214 -7.16625 7.16625 -10.0328 0 0 1 -4.2157 0
1 227 -8.5995 8.5995 -11.466 0 0 1 -3.59364 0
1 216 -4.29975 7.16625 -10.0328 0 0 1 -4.17873 0
1 229 -5.733 8.5995 -11.466 0 0 1 -4.07144 0
1 218 -1.43325 7.16625 -10.0328 0 0 1 -4.18003 0
1 231 -2.8665 8.5995 -11.466 0 0 1 -4.17953 0
1 220 1.43325 7.16625 -10.0328 0 0 1 -4.18003 0
1 233 0 8.5995 -11.466 0 0 1 -4.199 0
1 235 2.8665 8.5995 -11.466 0 0 1 -4.17953 0
1 222 4.29975 7.16625 -10.0328 0 0 1 -4.17873 0
1 237 5.733 8.5995 -11.466 0 0 1 -4.07144 0
1 224 7.16625 7.16625 -10.0328 0 0 1 -4.2157 0
1 239 8.5995 8.5995 -11.466 0 0 1 -3.59364 0
1 226 10.0328 7.16625 -10.0328 0 0 1 -3.2648 0
1 228 -7.16625 10.0328 -10.0328 0 0 1 -3.2648 0
1 230 -4.29975 10.0328 -10.0328 0 0 1 -3.76934 0
1 232 -1.43325 10.0328 -10.0328 0 0 1 -4.03989 0
1 240 -2.8665 11.466 -11.466 0 0 1 -3.27608 0
1 234 1.43325 10.0328 -10.0328 0 0 1 -4.03989 0
1 241 0 11.466 -11.466 0 0 1 -3.45475 0
1 242 2.8665 11.466 -11.466 0 0 1 -3.27608 0
1 236 4.29975 10.0328 -10.0328 0 0 1 -3.76934 0
1 238 7.16625 10.0328 -10.0328 0 0 1 -3.2648 0
1 243 -7.16625 -10.0328 -7.16625 0 0 1 -3.27022 0
1 244 -4.29975 -10.0328 -7.16625 0 0 1 -3.72402 0
1 245 -2.8665 -11.466 -8.5995 0 0 1 -3.24136 0
1 246 -1.43325 -10.0328 -7.16625 0 0 1 -3.99844 0
1 247 0 -11.466 -8.5995 0 0 1 -3.42779 0
1 248 1.43325 -10.0328 -7.16625 0 0 1 -3.99844 0
1 249 2.8665 -11.466 -8.5995 0 0 1 -3.24136 0
1 250 4.29975 -10.0328 -7.16625 0 0 1 -3.72402 0
1 251 7.16625 -10.0328 -7.16625 0 0 1 -3.27022 0
1 252 -10.0328 -7.16625 -7.16625 0 0 1 -3.27022 0
1 253 -8.5995 -8.5995 -8.5995 0 0 1 -3.59944 0
1 254 -7.16625 -7.16625 -7.16625 0 0 1 -4.12583 0
1 255 -5.733 -8.5995 -8.5995 0 0 1 -3.98565 0
2 256 -4.29975 -7.16625 -7.16625 0 0 1 -4.37918 0
2 257 -2.8665 -8.5995 -8.5995 0 0 1 -4.39124 0
2 258 -1.43325 -7.16625 -7.16625 0 0 1 -4.36689 0
2 259 0 -8.5995 -8.5995 0 0 1 -4.41408 0
2 260 1.43325 -7.16625 -7.16625 0 0 1 -4.36689 0
2 261 2.8665 -8.5995 -8.5995 0 0 1 -4.39124 0
2 262 4.29975 -7.16625 -7.16625 0 0 1 -4.37918 0
1 263 5.733 -8.5995 -8.5995 0 0 1 -3.98565 0
1 264 7.16625 -7.16625 -7.16625 0 0 1 -4.12583 0
1 265 8.5995 -8.5995 -8.5995 0 0 1 -3.59944 0
1 266 10.0328 -7.16625 -7.16625 0 0 1 -3.27022 0
1 267 -10.0328 -4.29975 -7.16625 0 0 1 -3.72402 0
1 268 -8.5995 -5.733 -8.5995 0 0 1 -3.98565 0
2 269 -7.16625 -4.29975 -7.16625 0 0 1 -4.37918 0
2 270 -5.733 -5.733 -8.5995 0 0 1 -4.39252 0
2 271 -4.29975 -4.29975 -7.16625 0 0 1 -4.35534 0
2 272 -2.8665 -5.733 -8.5995 0 0 1 -4.39451 0
2 273 -1.43325 -4.29975 -7.16625 0 0 1 -4.11212 0
2 274 0 -5.733 -8.5995 0 0 1 -4.37729 0
2 275 1.43325 -4.29975 -7.16625 0 0 1 -4.11212 0
2 276 2.8665 -5.733 -8.5995 0 0 1 -4.39451 0
2 277 4.29975 -4.29975 -7.16625 0 0 1 -4.35534 0
2 278 5.733 -5.733 -8.5995 0 0 1 -4.39252 0
2 279 7.16625 -4.29975 -7.16625 0 0 1 -4.37918 0
1 280 8.5995 -5.733 -8.5995 0 0 1 -3.98565 0
1 281 10.0328 -4.29975 -7.16625 0 0 1 -3.72402 0
1 282 -11.466 -2.8665 -8.5995 0 0 1 -3.24136 0
1 283 -10.0328 -1.43325 -7.16625 0 0 1 -3.99844 0
2 284 -8.5995 -2.8665 -8.5995 0 0 1 -4.39124 0
2 285 -7.16625 -1.43325 -7.16625 0 0 1 -4.36689 0
2 286 -5.733 -2.8665 -8.5995 0 0 1 -4.39451 0
2 287 -4.29975 -1.43325 -7.16625 0 0 1 -4.11212 0
2 288 -2.8665 -2.8665 -8.5995 0 0 1 -4.23681 0
2 290 0 -2.8665 -8.5995 0 0 1 -3.89195 0
2 292 2.8665 -2.8665 -8.5995 0 0 1 -4.23681 0
2 293 4.29975 -1.43325 -7.16625 0 0 1 -4.11212 0
2 294 5.733 -2.8665 -8.5995 0 0 1 -4.39451 0
2 295 7.16625 -1.43325 -7.16625 0 0 1 -4.36689 0
2 296 8.5995 -2.8665 -8.5995 0 0 1 -4.39124 0
1 297 10.0328 -1.43325 -7.16625 0 0 1 -3.99844 0
1 298 11.466 -2.8665 -8.5995 0 0 1 -3.24136 0
1 299 -11.466 0 -8.5995 0 0 1 -3.42779 0
1 300 -10.0328 1.43325 -7.16625 0 0 1 -3.99844 0
1 316 -11.466 2.8665 -8.5995 0 0 1 -3.24136 0
2 301 -8.5995 0 -8.5995 0 0 1 -4.41408 0
2 302 -7.16625 1.43325 -7.16625 0 0 1 -4.36689 0
2 318 -8.5995 2.8665 -8.5995 0 0 1 -4.39124 0
2 303 -5.733 0 -8.5995 0 0 1 -4.37729 0
2 304 -4.29975 1.43325 -7.16625 0 0 1 -4.11212 0
2 320 -5.733 2.8665 -8.5995 0 0 1 -4.39451 0
2 305 -2.8665 0 -8.5995 0 0 1 -3.89195 0
2 322 -2.8665 2.8665 -8.5995 0 0 1 -4.23681 0
2 309 2.8665 0 -8.5995 0 0 1 -3.89195 0
2 324 0 2.8665 -8.5995 0 0 1 -3.89195 0
2 326 2.8665 2.8665 -8.5995 0 0 1 -4.23681 0
2 310 4.29975 1.43325 -7.16625 0 0 1 -4.11212 0
2 311 5.733 0 -8.5995 0 0 1 -4.37729 0
2 328 5.733 2.8665 -8.5995 0 0 1 -4.39451 0
2 312 7.16625 1.43325 -7.16625 0 0 1 -4.36689 0
2 313 8.5995 0 -8.5995 0 0 1 -4.41408 0
2 330 8.5995 2.8665 -8.5995 0 0 1 -4.39124 0
1 314 10.0328 1.43325 -7.16625 0 0 1 -3.99844 0
1 315 11.466 0 -8.5995 0 0 1 -3.42779 0
1 332 11.466 2.8665 -8.5995 0 0 1 -3.24136 0
1 317 -10.0328 4.29975 -7.16625 0 0 1 -3.72402 0
2 319 -7.16625 4.29975 -7.16625 0 0 1 -4.37918 0
1 334 -8.5995 5.733 -8.5995 0 0 1 -3.98565 0
2 321 -4.29975 4.29975 -7.16625 0 0 1 -4.35534 0
2 336 -5.733 5.733 -8.5995 0 0 1 -4.39252 0
2 323 -1.43325 4.29975 -7.16625 0 0 1 -4.11212 0
2 338 -2.8665 5.733 -8.5995 0 0 1 -4.39451 0
2 325 1.43325 4.29975 -7.16625 0 0 1 -4.11212 0
2 340 0 5.733 -8.5995 0 0 1 -4.37729 0
2 342 2.8665 5.733 -8.5995 0 0 1 -4.39451 0
2 327 4.29975 4.29975 -7.16625 0 0 1 -4.35534 0
2 344 5.733 5.733 -8.5995 0 0 1 -4.39252 0
2 329 7.16625 4.29975 -7.16625 0 0 1 -4.37918 0
1 346 8.5995 5.733 -8.5995 0 0 1 -3.98565 0
1 331 10.0328 4.29975 -7.16625 0 0 1 -3.72402 0
1 333 -10.0328 7.16625 -7.16625 0 0 1 -3.27022 0
1 335 -7.16625 7.16625 -7.16625 0 0 1 -4.12583 0
1 348 -8.5995 8.5995 -8.5995 0 0 1 -3.59944 0
2 337 -4.29975 7.16625 -7.16625 0 0 1 -4.37918 0
1 350 -5.733 8.5995 -8.5995 0 0 1 -3.98565 0
2 339 -1.43325 7.16625 -7.16625 0 0 1 -4.36689 0
2 352 -2.8665 8.5995 -8.5995 0 0 1 -4.39124 0
2 341 1.43325 7.16625 -7.16625 0 0 1 -4.36689 0
2 354 0 8.5995 -8.5995 0 0 1 -4.41408 0
2 356 2.8665 8.5995 -8.5995 0 0 1 -4.39124 0
2 343 4.29975 7.16625 -7.16625 0 0 1 -4.37918 0
1 358 5.733 8.5995 -8.5995 0 0 1 -3.98565 0
1 345 7.16625 7.16625 -7.16625 0 0 1 -4.12583 0
1 360 8.5995 8.5995 -8.5995 0 0 1 -3.59944 0
1 347 10.0328 7.16625 -7.16625 0 0 1 -3.27022 0
1 349 -7.16625 10.0328 -7.16625 0 0 1 -3.27022 0
1 351 -4.29975 10.0328 -7.16625 0 0 1 -3.72402 0
1 353 -1.43325 10.0328 -7.16625 0 0 1 -3.99844 0
1 361 -2.8665 11.466 -8.5995 0 0 1 -3.24136 0
1 355 1.43325 10.0328 -7.16625 0 0 1 -3.99844 0
1 362 0 11.466 -8.5995 0 0 1 -3.42779 0
1 363 2.8665 11.466 -8.5995 0 0 1 -3.24136 0
1 357 4.29975 10.0328 -7.16625 0 0 1 -3.72402 0
1 359 7.16625 10.0328 -7.16625 0 0 1 -3.27022 0
1 364 -7.16625 -10.0328 -4.29975 0 0 1 -3.26931 0
1 365 -4.29975 -10.0328 -4.29975 0 0 1 -3.72876 0
1 366 -2.8665 -11.466 -5.733 0 0 1 -3.24577 0
1 367 -1.43325 -10.0328 -4.29975 0 0 1 -3.99982 0
1 368 0 -11.466 -5.733 0 0 1 -3.43089 0
1 369 1.43325 -10.0328 -4.29975 0 0 1 -3.99982 0
1 370 2.8665 -11.466 -5.733 0 0 1 -3.24577 0
1 371 4.29975 -10.0328 -4.29975 0 0 1 -3.72876 0
1 372 7.16625 -10.0328 -4.29975 0 0 1 -3.26931 0
1 373 -10.0328 -7.16625 -4.29975 0 0 1 -3.26931 0
1 374 -8.5995 -8.5995 -5.733 0 0 1 -3.59502 0
1 375 -7.16625 -7.16625 -4.29975 0 0 1 -4.13619 0
1 376 -5.733 -8.5995 -5.733 0 0 1 -3.98968 0
2 377 -4.29975 -7.16625 -4.29975 0 0 1 -4.38251 0
2 378 -2.8665 -8.5995 -5.733 0 0 1 -4.37717 0
2 379 -1.43325 -7.16625 -4.29975 0 0 1 -4.36544 0
2 380 0 -8.5995 -5.733 0 0 1 -4.39492 0
2 381 1.43325 -7.16625 -4.29975 0 0 1 -4.36544 0
2 382 2.8665 -8.5995 -5.733 0 0 1 -4.37717 0
2 383 4.29975 -7.16625 -4.29975 0 0 1 -4.38251 0
1 384 5.733 -8.5995 -5.733 0 0 1 -3.98968 0
1 385 7.16625 -7.16625 -4.29975 0 0 1 -4.13619 0
1 386 8.5995 -8.5995 -5.733 0 0 1 -3.59502 0
1 387 10.0328 -7.16625 -4.29975 0 0 1 -3.26931 0
1 388 -10.0328 -4.29975 -4.29975 0 0 1 -3.72876 0
1 389 -8.5995 -5.733 -5.733 0 0 1 -3.98968 0
2 390 -7.16625 -4.29975 -4.29975 0 0 1 -4.38251 0
2 391 -5.733 -5.733 -5.733 0 0 1 -4.37174 0
2 392 -4.29975 -4.29975 -4.29975 0 0 1 -4.34826 0
2 393 -2.8665 -5.733 -5.733 0 0 1 -4.34087 0
2 394 -1.43325 -4.29975 -4.29975 0 0 1 -4.11127 0
2 395 0 -5.733 -5.733 0 0 1 -4.25634 0
2 396 1.43325 -4.29975 -4.29975 0 0 1 -4.11127 0
2 397 2.8665 -5.733 -5.733 0 0 1 -4.34087 0
2 398 4.29975 -4.29975 -4.29975 0 0 1 -4.34826 0
2 399 5.733 -5.733 -5.733 0 0 1 -4.37174 0
2 400 7.16625 -4.29975 -4.29975 0 0 1 -4.38251 0
1 401 8.5995 -5.733 -5.733 0 0 1 -3.98968 0
1 402 10.0328 -4.29975 -4.29975 0 0 1 -3.72876 0
1 403 -11.466 -2.8665 -5.733 0 0 1 -3.24577 0
1 404 -10.0328 -1.43325 -4.29975 0 0 1 -3.99982 0
2 405 -8.5995 -2.8665 -5.733 0 0 1 -4.37717 0
2 406 -7.16625 -1.43325 -4.29975 0 0 1 -4.36544 0
2 407 -5.733 -2.8665 -5.733 0 0 1 -4.34087 0
2 408 -4.29975 -1.43325 -4.29975 0 0 1 -4.11127 0
2 409 -2.8665 -2.8665 -5.733 0 0 1 -3.84133 0
2 413 2.8665 -2.8665 -5.733 0 0 1 -3.84133 0
2 414 4.29975 -1.43325 -4.29975 0 0 1 -4.11127 0
2 415 5.733 -2.8665 -5.733 0 0 1 -4.34087 0
2 416 7.16625 -1.43325 -4.29975 0 0 1 -4.36544 0
2 417 8.5995 -2.8665 -5.733 0 0 1 -4.37717 0
1 418 10.0328 -1.43325 -4.29975 0 0 1 -3.99982 0
1 419 11.466 -2.8665 -5.733 0 0 1 -3.24577 0
1 420 -11.466 0 -5.733 0 0 1 -3.43089 0
1 421 -10.0328 1.43325 -4.29975 0 0 1 -3.99982 0
1 437 -11.466 2.8665 -5.733 0 0 1 -3.24577 0
2 422 -8.5995 0 -5.733 0 0 1 -4.39492 0
2 423 -7.16625 1.43325 -4.29975 0 0 1 -4.36544 0
2 439 -8.5995 2.8665 -5.733 0 0 1 -4.37717 0
2 424 -5.733 0 -5.733 0 0 1 -4.25634 0
2 425 -4.29975 1.43325 -4.29975 0 0 1 -4.11127 0
2 441 -5.733 2.8665 -5.733 0 0 1 -4.34087 0
2 443 -2.8665 2.8665 -5.733 0 0 1 -3.84133 0
2 447 2.8665 2.8665 -5.733 0 0 1 -3.84133 0
2 431 4.29975 1.43325 -4.29975 0 0 1 -4.11127 0
2 432 5.733 0 -5.733 0 0 1 -4.25634 0
2 449 5.733 2.8665 -5.733 0 0 1 -4.34087 0
2 433 7.16625 1.43325 -4.29975 0 0 1 -4.36544 0
2 434 8.5995 0 -5.733 0 0 1 -4.39492 0
2 451 8.5995 2.8665 -5.733 0 0 1 -4.37717 0
1 435 10.0328 1.43325 -4.29975 0 0 1 -3.99982 0
1 436 11.466 0 -5.733 0 0 1 -3.43089 0
1 453 11.466 2.8665 -5.733 0 0 1 -3.24577 0
1 438 -10.0328 4.29975 -4.29975 0 0 1 -3.72876 0
2 440 -7.16625 4.29975 -4.29975 0 0 1 -4.38251 0
1 455 -8.5995 5.733 -5.733 0 0 1 -3.98968 0
2 442 -4.29975 4.29975 -4.29975 0 0 1 -4.34826 0
2 457 -5.733 5.733 -5.733 0 0 1 -4.37174 0
2 444 -1.43325 4.29975 -4.29975 0 0 1 -4.11127 0
2 459 -2.8665 5.733 -5.733 0 0 1 -4.34087 0
2 446 1.43325 4.29975 -4.29975 0 0 1 -4.11127 0
2 461 0 5.733 -5.733 0 0 1 -4.25634 0
2 463 2.8665 5.733 -5.733 0 0 1 -4.34087 0
2 448 4.29975 4.29975 -4.29975 0 0 1 -4.34826 0
2 465 5.733 5.733 -5.733 0 0 1 -4.37174 0
2 450 7.16625 4.29975 -4.29975 0 0 1 -4.38251 0
1 467 8.5995 5.733 -5.733 0 0 1 -3.98968 0
1 452 10.0328 4.29975 -4.29975 0 0 1 -3.72876 0
1 454 -10.0328 7.16625 -4.29975 0 0 1 -3.26931 0
1 456 -7.16625 7.16625 -4.29975 0 0 1 -4.13619 0
1 469 -8.5995 8.5995 -5.733 0 0 1 -3.59502 0
2 458 -4.29975 7.16625 -4.29975 0 0 1 -4.38251 0
1 471 -5.733 8.5995 -5.733 0 0 1 -3.98968 0
2 460 -1.43325 7.16625 -4.29975 0 0 1 -4.36544 0
2 473 -2.8665 8.5995 -5.733 0 0 1 -4.37717 0
2 462 1.43325 7.16625 -4.29975 0 0 1 -4.36544 0
2 475 0 8.5995 -5.733 0 0 1 -4.39492 0
2 477 2.8665 8.5995 -5.733 0 0 1 -4.37717 0
2 464 4.29975 7.16625 -4.29975 0 0 1 -4.38251 0
1 479 5.733 8.5995 -5.733 0 0 1 -3.98968 0
1 466 7.16625 7.16625 -4.29975 0 0 1 -4.13619 0
1 481 8.5995 8.5995 -5.733 0 0 1 -3.59502 0
1 468 10.0328 7.16625 -4.29975 0 0 1 -3.26931 0
1 470 -7.16625 10.0328 -4.29975 0 0 1 -3.26931 0
1 472 -4.29975 10.0328 -4.29975 0 0 1 -3.72876 0
1 474 -1.43325 10.0328 -4.29975 0 0 1 -3.99982 0
1 482 -2.8665 11.466 -5.733 0 0 1 -3.24577 0
1 476 1.43325 10.0328 -4.29975 0 0 1 -3.99982 0
1 483 0 11.466 -5.733 0 0 1 -3.43089 0
1 484 2.8665 11.466 -5.733 0 0 1 -3.24577 0
1 478 4.29975 10.0328 -4.29975 0 0 1 -3.72876 0
1 480 7.16625 10.0328 -4.29975 0 0 1 -3.26931 0
1 485 -7.16625 -10.0328 -1.43325 0 0 1 -3.26931 0
1 486 -4.29975 -10.0328 -1.43325 0 0 1 -3.72876 0
1 487 -2.8665 -11.466 -2.8665 0 0 1 -3.24577 0
1 488 -1.43325 -10.0328 -1.43325 0 0 1 -3.99982 0
1 489 0 -11.466 -2.8665 0 0 1 -3.43089 0
1 490 1.43325 -10.0328 -1.43325 0 0 1 -3.99982 0
1 491 2.8665 -11.466 -2.8665 0 0 1 -3.24577 0
1 492 4.29975 -10.0328 -1.43325 0 0 1 -3.72876 0
1 493 7.16625 -10.0328 -1.43325 0 0 1 -3.26931 0
1 494 -10.0328 -7.16625 -1.43325 0 0 1 -3.26931 0
1 495 -8.5995 -8.5995 -2.8665 0 0 1 -3.59502 0
1 496 -7.16625 -7.16625 -1.43325 0 0 1 -4.13619 0
1 497 -5.733 -8.5995 -2.8665 0 0 1 -3.98792 0
2 498 -4.29975 -7.16625 -1.43325 0 0 1 -4.38251 0
2 499 -2.8665 -8.5995 -2.8665 0 0 1 -4.37963 0
2 500 -1.43325 -7.16625 -1.43325 0 0 1 -4.36548 0
2 501 0 -8.5995 -2.8665 0 0 1 -4.39738 0
2 502 1.43325 -7.16625 -1.43325 0 0 1 -4.36548 0
2 503 2.8665 -8.5995 -2.8665 0 0 1 -4.37963 0
2 504 4.29975 -7.16625 -1.43325 0 0 1 -4.38251 0
1 505 5.733 -8.5995 -2.8665 0 0 1 -3.98792 0
1 506 7.16625 -7.16625 -1.43325 0 0 1 -4.13619 0
1 507 8.5995 -8.5995 -2.8665 0 0 1 -3.59502 0
1 508 10.0328 -7.16625 -1.43325 0 0 1 -3.26931 0
1 509 -10.0328 -4.29975 -1.43325 0 0 1 -3.72876 0
1 510 -8.5995 -5.733 -2.8665 0 0 1 -3.98792 0
2 511 -7.16625 -4.29975 -1.43325 0 0 1 -4.38251 0
2 512 -5.733 -5.733 -2.8665 0 0 1 -4.37543 0
2 513 -4.29975 -4.29975 -1.43325 0 0 1 -4.36125 0
2 514 -2.8665 -5.733 -2.8665 0 0 1 -4.35875 0
2 515 -1.43325 -4.29975 -1.43325 0 0 1 -4.34845 0
2 516 0 -5.733 -2.8665 0 0 1 -4.34353 0
2 517 1.43325 -4.29975 -1.43325 0 0 1 -4.34845 0
2 518 2.8665 -5.733 -2.8665 0 0 1 -4.35875 0
2 519 4.29975 -4.29975 -1.43325 0 0 1 -4.36125 0
2 520 5.733 -5.733 -2.8665 0 0 1 -4.37543 0
2 521 7.16625 -4.29975 -1.43325 0 0 1 -4.38251 0
1 522 8.5995 -5.733 -2.8665 0 0 1 -3.98792 0
1 523 10.0328 -4.29975 -1.43325 0 0 1 -3.72876 0
1 524 -11.466 -2.8665 -2.8665 0 0 1 -3.24577 0
1 525 -10.0328 -1.43325 -1.43325 0 0 1 -3.99982 0
2 526 -8.5995 -2.8665 -2.8665 0 0 1 -4.37963 0
2 527 -7.16625 -1.43325 -1.43325 0 0 1 -4.36548 0
2 528 -5.733 -2.8665 -2.8665 0 0 1 -4.35875 0
2 529 -4.29975 -1.43325 -1.43325 0 0 1 -4.34845 0
2 530 -2.8665 -2.8665 -2.8665 0 0 1 -4.20248 0
2 531 -1.43325 -1.43325 -1.43325 0 0 1 -4.11123 0
2 532 0 -2.8665 -2.8665 0 0 1 -3.84628 0
2 533 1.43325 -1.43325 -1.43325 0 0 1 -4.11123 0
2 534 2.8665 -2.8665 -2.8665 0 0 1 -4.20248 0
2 535 4.29975 -1.43325 -1.43325 0 0 1 -4.34845 0
2 536 5.733 -2.8665 -2.8665 0 0 1 -4.35875 0
2 537 7.16625 -1.43325 -1.43325 0 0 1 -4.36548 0
2 538 8.5995 -2.8665 -2.8665 0 0 1 -4.37963 0
1 539 10.0328 -1.43325 -1.43325 0 0 1 -3.99982 0
1 540 11.466 -2.8665 -2.8665 0 0 1 -3.24577 0
1 541 -11.466 0 -2.8665 0 0 1 -3.43089 0
1 542 -10.0328 1.43325 -1.43325 0 0 1 -3.99982 0
1 558 -11.466 2.8665 -2.8665 0 0 1 -3.24577 0
2 543 -8.5995 0 -2.8665 0 0 1 -4.39738 0
2 544 -7.16625 1.43325 -1.43325 0 0 1 -4.36548 0
2 560 -8.5995 2.8665 -2.8665 0 0 1 -4.37963 0
2 545 -5.733 0 -2.8665 0 0 1 -4.34353 0
2 546 -4.29975 1.43325 -1.43325 0 0 1 -4.34845 0
2 562 -5.733 2.8665 -2.8665 0 0 1 -4.35875 0
2 547 -2.8665 0 -2.8665 0 0 1 -3.84628 0
2 548 -1.43325 1.43325 -1.43325 0 0 1 -4.11123 0
2 564 -2.8665 2.8665 -2.8665 0 0 1 -4.20248 0
2 550 1.43325 1.43325 -1.43325 0 0 1 -4.11123 0
2 551 2.8665 0 -2.8665 0 0 1 -3.84628 0
2 566 0 2.8665 -2.8665 0 0 1 -3.84628 0
2 568 2.8665 2.8665 -2.8665 0 0 1 -4.20248 0
2 552 4.29975 1.43325 -1.43325 0 0 1 -4.34845 0
2 553 5.733 0 -2.8665 0 0 1 -4.34353 0
2 570 5.733 2.8665 -2.8665 0 0 1 -4.35875 0
2 554 7.16625 1.43325 -1.43325 0 0 1 -4.36548 0
2 555 8.5995 0 -2.8665 0 0 1 -4.39738 0
2 572 8.5995 2.8665 -2.8665 0 0 1 -4.37963 0
1 556 10.0328 1.43325 -1.43325 0 0 1 -3.99982 0
1 557 11.466 0 -2.8665 0 0 1 -3.43089 0
1 574 11.466 2.8665 -2.8665 0 0 1 -3.24577 0
1 559 -10.0328 4.29975 -1.43325 0 0 1 -3.72876 0
2 561 -7.16625 4.29975 -1.43325 0 0 1 -4.38251 0
1 576 -8.5995 5.733 -2.8665 0 0 1 -3.98792 0
2 563 -4.29975 4.29975 -1.43325 0 0 1 -4.36125 0
2 578 -5.733 5.733 -2.8665 0 0 1 -4.37543 0
2 565 -1.43325 4.29975 -1.43325 0 0 1 -4.34845 0
2 580 -2.8665 5.733 -2.8665 0 0 1 -4.35875 0
2 567 1.43325 4.29975 -1.43325 0 0 1 -4.34845 0
2 582 0 5.733 -2.8665 0 0 1 -4.34353 0
2 584 2.8665 5.733 -2.8665 0 0 1 -4.35875 0
2 569 4.29975 4.29975 -1.43325 0 0 1 -4.36125 0
2 586 5.733 5.733 -2.8665 0 0 1 -4.37543 0
2 571 7.16625 4.29975 -1.43325 0 0 1 -4.38251 0
1 588 8.5995 5.733 -2.8665 0 0 1 -3.98792 0
1 573 10.0328 4.29975 -1.43325 0 0 1 -3.72876 0
1 575 -10.0328 7.16625 -1.43325 0 0 1 -3.26931 0
1 577 -7.16625 7.16625 -1.43325 0 0 1 -4.13619 0
1 590 -8.5995 8.5995 -2.8665 0 0 1 -3.59502 0
2 579 -4.29975 7.16625 -1.43325 0 0 1 -4.38251 0
1 592 -5.733 8.5995 -2.8665 0 0 1 -3.98792 0
2 581 -1.43325 7.16625 -1.43325 0 0 1 -4.36548 0
2 594 -2.8665 8.5995 -2.8665 0 0 1 -4.37963 0
2 583 1.43325 7.16625 -1.43325 0 0 1 -4.36548 0
2 596 0 8.5995 -2.8665 0 0 1 -4.39738 0
2 598 2.8665 8.5995 -2.8665 0 0 1 -4.37963 0
2 585 4.29975 7.16625 -1.43325 0 0 1 -4.38251 0
1 600 5.733 8.5995 -2.8665 0 0 1 -3.98792 0
1 587 7.16625 7.16625 -1.43325 0 0 1 -4.13619 0
1 602 8.5995 8.5995 -2.8665 0 0 1 -3.59502 0
1 589 10.0328 7.16625 -1.43325 0 0 1 -3.26931 0
1 591 -7.16625 10.0328 -1.43325 0 0 1 -3.26931 0
1 593 -4.29975 10.0328 -1.43325 0 0 1 -3.72876 0
1 595 -1.43325 10.0328 -1.43325 0 0 1 -3.99982 0
1 603 -2.8665 11.466 -2.8665 0 0 1 -3.24577 0
1 597 1.43325 10.0328 -1.43325 0 0 1 -3.99982 0
1 604 0 11.466 -2.8665 0 0 1 -3.43089 0
1 605 2.8665 11.466 -2.8665 0 0 1 -3.24577 0
1 599 4.29975 10.0328 -1.43325 0 0 1 -3.72876 0
1 601 7.16625 10.0328 -1.43325 0 0 1 -3.26931 0
1 606 -7.16625 -10.0328 1.43325 0 0 1 -3.26931 0
1 607 -4.29975 -10.0328 1.43325 0 0 1 -3.72876 0
1 608 -2.8665 -11.466 0 0 0 1 -3.24577 0
1 609 -1.43325 -10.0328 1.43325 0 0 1 -3.99982 0
1 729 -2.8665 -11.466 2.8665 0 0 1 -3.24577 0
1 610 0 -11.466 0 0 0 1 -3.43089 0
1 611 1.43325 -10.0328 1.43325 0 0 1 -3.99982 0
1 612 2.8665 -11.466 0 0 0 1 -3.24577 0
1 731 0 -11.466 2.8665 0 0 1 -3.43089 0
1 733 2.8665 -11.466 2.8665 0 0 1 -3.24577 0
1 613 4.29975 -10.0328 1.43325 0 0 1 -3.72876 0
1 614 7.16625 -10.0328 1.43325 0 0 1 -3.26931 0
1 615 -10.0328 -7.16625 1.43325 0 0 1 -3.26931 0
1 616 -8.5995 -8.5995 0 0 0 1 -3.59502 0
1 617 -7.16625 -7.16625 1.43325 0 0 1 -4.13619 0
1 737 -8.5995 -8.5995 2.8665 0 0 1 -3.59502 0
1 618 -5.733 -8.5995 0 0 0 1 -3.98792 0
2 619 -4.29975 -7.16625 1.43325 0 0 1 -4.38251 0
1 739 -5.733 -8.5995 2.8665 0 0 1 -3.98792 0
2 620 -2.8665 -8.5995 0 0 0 1 -4.37963 0
2 621 -1.43325 -7.16625 1.43325 0 0 1 -4.36548 0
2 741 -2.8665 -8.5995 2.8665 0 0 1 -4.37963 0
2 622 0 -8.5995 0 0 0 1 -4.39738 0
2 623 1.43325 -7.16625 1.43325 0 0 1 -4.36548 0
2 624 2.8665 -8.5995 0 0 0 1 -4.37963 0
2 743 0 -8.5995 2.8665 0 0 1 -4.39738 0
2 745 2.8665 -8.5995 2.8665 0 0 1 -4.37963 0
2 625 4.29975 -7.16625 1.43325 0 0 1 -4.38251 0
1 626 5.733 -8.5995 0 0 0 1 -3.98792 0
1 747 5.733 -8.5995 2.8665 0 0 1 -3.98792 0
1 627 7.16625 -7.16625 1.43325 0 0 1 -4.13619 0
1 628 8.5995 -8.5995 0 0 0 1 -3.59502 0
1 749 8.5995 -8.5995 2.8665 0 0 1 -3.59502 0
1 629 10.0328 -7.16625 1.43325 0 0 1 -3.26931 0
1 630 -10.0328 -4.29975 1.43325 0 0 1 -3.72876 0
1 631 -8.5995 -5.733 0 0 0 1 -3.98792 0
2 632 -7.16625 -4.29975 1.43325 0 0 1 -4.38251 0
1 752 -8.5995 -5.733 2.8665 0 0 1 -3.98792 0
2 633 -5.733 -5.733 0 0 0 1 -4.37543 0
2 634 -4.29975 -4.29975 1.43325 0 0 1 -4.36125 0
2 754 -5.733 -5.733 2.8665 0 0 1 -4.37543 0
2 635 -2.8665 -5.733 0 0 0 1 -4.35879 0
2 636 -1.43325 -4.29975 1.43325 0 0 1 -4.34845 0
2 756 -2.8665 -5.733 2.8665 0 0 1 -4.35875 0
2 637 0 -5.733 0 0 0 1 -4.35651 0
2 638 1.43325 -4.29975 1.43325 0 0 1 -4.34845 0
2 639 2.8665 -5.733 0 0 0 1 -4.35879 0
2 758 0 -5.733 2.8665 0 0 1 -4.34353 0
2 760 2.8665 -5.733 2.8665 0 0 1 -4.35875 0
2 640 4.29975 -4.29975 1.43325 0 0 1 -4.36125 0
2 641 5.733 -5.733 0 0 0 1 -4.37543 0
2 762 5.733 -5.733 2.8665 0 0 1 -4.37543 0
2 642 7.16625 -4.29975 1.43325 0 0 1 -4.38251 0
1 643 8.5995 -5.733 0 0 0 1 -3.98792 0