ITEM: TIMESTEP
0
ITEM: NUMBER OF ATOMS
1291
ITEM: BOX BOUNDS pp pp pp
-2.5000000000000000e+01 2.5000000000000000e+01
-2.5000000000000000e+01 2.5000000000000000e+01
-2.5000000000000000e+01 2.5000000000000000e+01
ITEM: ATOMS type id x y z c_outsp[1] c_outsp[2] c_outsp[3] c_peAtom c_keAtom
1 1 -4.29975 -4.29975 -10.0328 0 0 1 -3.05431 0
2 2 -1.43325 -4.29975 -10.0328 0 0 1 -3.27688 0
1 3 1.43325 -4.29975 -10.0328 0 0 1 -3.20354 0
1 4 4.29975 -4.29975 -10.0328 0 0 1 -3.11509 0
1 5 -7.16625 -1.43325 -10.0328 0 0 1 -3.12913 0
1 6 -4.29975 -1.43325 -10.0328 0 0 1 -3.5552 0
1 7 -1.43325 -1.43325 -10.0328 0 0 1 -3.40505 0
1 8 1.43325 -1.43325 -10.0328 0 0 1 -3.44597 0
1 9 4.29975 -1.43325 -10.0328 0 0 1 -3.55605 0
2 10 7.16625 -1.43325 -10.0328 0 0 1 -3.16808 0
1 11 -10.0328 1.43325 -10.0328 0 0 1 -2.90124 0
1 12 -7.16625 1.43325 -10.0328 0 0 1 -3.40877 0
2 13 -4.29975 1.43325 -10.0328 0 0 1 -3.96196 0
1 14 -2.8665 0 -11.466 0 0 1 -3.02891 0
1 15 -1.43325 1.43325 -10.0328 0 0 1 -3.71468 0
1 24 -2.8665 2.8665 -11.466 0 0 1 -3.08526 0
2 16 0 0 -11.466 0 0 1 -3.15444 0
1 17 1.43325 1.43325 -10.0328 0 0 1 -3.75741 0
1 18 2.8665 0 -11.466 0 0 1 -3.03868 0
1 26 0 2.8665 -11.466 0 0 1 -3.21061 0
1 28 2.8665 2.8665 -11.466 0 0 1 -3.10323 0
1 19 4.29975 1.43325 -10.0328 0 0 1 -3.73001 0
1 20 7.16625 1.43325 -10.0328 0 0 1 -3.34849 0
1 21 10.0328 1.43325 -10.0328 0 0 1 -2.95133 0
1 22 -7.16625 4.29975 -10.0328 0 0 1 -3.03406 0
2 23 -4.29975 4.29975 -10.0328 0 0 1 -3.6139 0
1 25 -1.43325 4.29975 -10.0328 0 0 1 -3.70876 0
1 27 1.43325 4.29975 -10.0328 0 0 1 -3.74304 0
1 29 4.29975 4.29975 -10.0328 0 0 1 -3.46578 0
1 30 7.16625 4.29975 -10.0328 0 0 1 -3.12161 0
1 31 -1.43325 7.16625 -10.0328 0 0 1 -3.11461 0
1 32 1.43325 7.16625 -10.0328 0 0 1 -3.10792 0
1 33 -7.16625 -7.16625 -7.16625 0 0 1 -3.06492 0
1 34 -4.29975 -7.16625 -7.16625 0 0 1 -3.59968 0
1 35 -1.43325 -7.16625 -7.16625 0 0 1 -3.61482 0
1 36 1.43325 -7.16625 -7.16625 0 0 1 -3.61356 0
1 37 4.29975 -7.16625 -7.16625 0 0 1 -3.57498 0
2 38 7.16625 -7.16625 -7.16625 0 0 1 -3.13039 0
1 39 -12.8992 -4.29975 -7.16625 0 0 1 -3.09387 0
1 40 -10.0328 -4.29975 -7.16625 0 0 1 -3.61434 0
1 41 -7.16625 -4.29975 -7.16625 0 0 1 -3.91806 0
2 42 -5.733 -5.733 -8.5995 0 0 1 -3.43398 0
1 43 -4.29975 -4.29975 -7.16625 0 0 1 -4.1846 0
1 44 -2.8665 -5.733 -8.5995 0 0 1 -3.47462 0
1 45 -1.43325 -4.29975 -7.16625 0 0 1 -3.8764 0
2 46 0 -5.733 -8.5995 0 0 1 -3.77265 0
1 47 1.43325 -4.29975 -7.16625 0 0 1 -3.93025 0
1 48 2.8665 -5.733 -8.5995 0 0 1 -3.56212 0
1 49 4.29975 -4.29975 -7.16625 0 0 1 -4.1911 0
1 50 5.733 -5.733 -8.5995 0 0 1 -3.28835 0
1 51 7.16625 -4.29975 -7.16625 0 0 1 -3.89004 0
1 52 10.0328 -4.29975 -7.16625 0 0 1 -3.62649 0
1 53 12.8992 -4.29975 -7.16625 0 0 1 -3.09563 0
1 54 -12.8992 -1.43325 -7.16625 0 0 1 -3.62858 0
1 55 -11.466 -2.8665 -8.5995 0 0 1 -3.09297 0
1 56 -10.0328 -1.43325 -7.16625 0 0 1 -4.02961 0
1 57 -8.5995 -2.8665 -8.5995 0 0 1 -3.47645 0
1 58 -7.16625 -1.43325 -7.16625 0 0 1 -4.2058 0
1 59 -5.733 -2.8665 -8.5995 0 0 1 -3.85511 0
1 60 -4.29975 -1.43325 -7.16625 0 0 1 -3.94605 0
1 61 -2.8665 -2.8665 -8.5995 0 0 1 -3.90443 0
1 63 0 -2.8665 -8.5995 0 0 1 -3.45167 0
1 65 2.8665 -2.8665 -8.5995 0 0 1 -3.89084 0
1 66 4.29975 -1.43325 -7.16625 0 0 1 -3.9145 0
1 67 5.733 -2.8665 -8.5995 0 0 1 -3.89416 0
1 68 7.16625 -1.43325 -7.16625 0 0 1 -4.12362 0
1 69 8.5995 -2.8665 -8.5995 0 0 1 -3.45149 0
1 70 10.0328 -1.43325 -7.16625 0 0 1 -4.08608 0
1 71 11.466 -2.8665 -8.5995 0 0 1 -3.09387 0
1 72 12.8992 -1.43325 -7.16625 0 0 1 -3.61923 0
1 73 -15.7657 1.43325 -7.16625 0 0 1 -2.94051 0
1 74 -12.8992 1.43325 -7.16625 0 0 1 -3.71835 0
1 75 -11.466 0 -8.5995 0 0 1 -3.44111 0
2 76 -10.0328 1.43325 -7.16625 0 0 1 -4.3536 0
1 95 -11.466 2.8665 -8.5995 0 0 1 -3.28848 0
1 77 -8.5995 0 -8.5995 0 0 1 -3.90864 0
1 78 -7.16625 1.43325 -7.16625 0 0 1 -4.14858 0
1 97 -8.5995 2.8665 -8.5995 0 0 1 -3.89191 0
1 79 -5.733 0 -8.5995 0 0 1 -4.04071 0
1 80 -4.29975 1.43325 -7.16625 0 0 1 -3.9152 0
1 99 -5.733 2.8665 -8.5995 0 0 1 -4.05035 0
1 81 -2.8665 0 -8.5995 0 0 1 -3.64714 0
1 101 -2.8665 2.8665 -8.5995 0 0 1 -4.02474 0
1 85 2.8665 0 -8.5995 0 0 1 -3.64714 0
1 103 0 2.8665 -8.5995 0 0 1 -3.66949 0
1 105 2.8665 2.8665 -8.5995 0 0 1 -4.02567 0
2 86 4.29975 1.43325 -7.16625 0 0 1 -4.17046 0
1 87 5.733 0 -8.5995 0 0 1 -4.03952 0
1 107 5.733 2.8665 -8.5995 0 0 1 -4.05765 0
2 88 7.16625 1.43325 -7.16625 0 0 1 -4.42286 0
1 89 8.5995 0 -8.5995 0 0 1 -3.91343 0
1 109 8.5995 2.8665 -8.5995 0 0 1 -3.85736 0
1 90 10.0328 1.43325 -7.16625 0 0 1 -4.13977 0
1 91 11.466 0 -8.5995 0 0 1 -3.40263 0
2 111 11.466 2.8665 -8.5995 0 0 1 -3.43655 0
1 92 12.8992 1.43325 -7.16625 0 0 1 -3.75423 0
1 93 15.7657 1.43325 -7.16625 0 0 1 -2.94051 0
1 94 -12.8992 4.29975 -7.16625 0 0 1 -3.31988 0
1 96 -10.0328 4.29975 -7.16625 0 0 1 -3.84369 0
2 98 -7.16625 4.29975 -7.16625 0 0 1 -4.36723 0
1 114 -8.5995 5.733 -8.5995 0 0 1 -3.30804 0
1 100 -4.29975 4.29975 -7.16625 0 0 1 -4.12054 0
1 116 -5.733 5.733 -8.5995 0 0 1 -3.70568 0
1 102 -1.43325 4.29975 -7.16625 0 0 1 -3.95323 0
1 118 -2.8665 5.733 -8.5995 0 0 1 -3.93416 0
1 104 1.43325 4.29975 -7.16625 0 0 1 -3.90251 0
1 120 0 5.733 -8.5995 0 0 1 -4.00141 0
1 122 2.8665 5.733 -8.5995 0 0 1 -3.93802 0
1 106 4.29975 4.29975 -7.16625 0 0 1 -4.17412 0
1 124 5.733 5.733 -8.5995 0 0 1 -3.71806 0
1 108 7.16625 4.29975 -7.16625 0 0 1 -4.11616 0
1 126 8.5995 5.733 -8.5995 0 0 1 -3.27677 0
1 110 10.0328 4.29975 -7.16625 0 0 1 -3.93212 0
1 112 12.8992 4.29975 -7.16625 0 0 1 -3.30018 0
1 113 -10.0328 7.16625 -7.16625 0 0 1 -3.30525 0
1 115 -7.16625 7.16625 -7.16625 0 0 1 -3.74121 0
1 117 -4.29975 7.16625 -7.16625 0 0 1 -4.02724 0
2 128 -5.733 8.5995 -8.5995 0 0 1 -2.76627 0
1 119 -1.43325 7.16625 -7.16625 0 0 1 -4.20315 0
1 130 -2.8665 8.5995 -8.5995 0 0 1 -3.39594 0
1 121 1.43325 7.16625 -7.16625 0 0 1 -4.20497 0
1 132 0 8.5995 -8.5995 0 0 1 -3.61396 0
1 134 2.8665 8.5995 -8.5995 0 0 1 -3.44372 0
1 123 4.29975 7.16625 -7.16625 0 0 1 -4.01125 0
1 136 5.733 8.5995 -8.5995 0 0 1 -2.87846 0
2 125 7.16625 7.16625 -7.16625 0 0 1 -4.00173 0
1 127 10.0328 7.16625 -7.16625 0 0 1 -3.24579 0
2 129 -4.29975 10.0328 -7.16625 0 0 1 -3.39626 0
1 131 -1.43325 10.0328 -7.16625 0 0 1 -3.55918 0
1 133 1.43325 10.0328 -7.16625 0 0 1 -3.60505 0
1 135 4.29975 10.0328 -7.16625 0 0 1 -3.29004 0
1 137 -4.29975 -10.0328 -4.29975 0 0 1 -3.09693 0
1 138 -1.43325 -10.0328 -4.29975 0 0 1 -3.26571 0
1 139 1.43325 -10.0328 -4.29975 0 0 1 -3.26921 0
1 140 4.29975 -10.0328 -4.29975 0 0 1 -3.10586 0
1 141 -12.8992 -7.16625 -4.29975 0 0 1 -3.09387 0
1 142 -10.0328 -7.16625 -4.29975 0 0 1 -3.61343 0
1 143 -7.16625 -7.16625 -4.29975 0 0 1 -3.9251 0
2 144 -5.733 -8.5995 -5.733 0 0 1 -3.43274 0
1 145 -4.29975 -7.16625 -4.29975 0 0 1 -4.19288 0
1 146 -2.8665 -8.5995 -5.733 0 0 1 -3.52215 0
1 147 -1.43325 -7.16625 -4.29975 0 0 1 -4.20938 0
1 148 0 -8.5995 -5.733 0 0 1 -3.62443 0
1 149 1.43325 -7.16625 -4.29975 0 0 1 -4.20868 0
1 150 2.8665 -8.5995 -5.733 0 0 1 -3.60512 0
1 151 4.29975 -7.16625 -4.29975 0 0 1 -4.20321 0
1 152 5.733 -8.5995 -5.733 0 0 1 -3.29776 0
1 153 7.16625 -7.16625 -4.29975 0 0 1 -3.87698 0
1 154 10.0328 -7.16625 -4.29975 0 0 1 -3.62022 0
1 155 12.8992 -7.16625 -4.29975 0 0 1 -3.09387 0
1 156 -15.7657 -4.29975 -4.29975 0 0 1 -3.08111 0
1 157 -12.8992 -4.29975 -4.29975 0 0 1 -4.04456 0
1 158 -11.466 -5.733 -5.733 0 0 1 -3.43743 0
1 159 -10.0328 -4.29975 -4.29975 0 0 1 -4.22059 0
2 160 -8.5995 -5.733 -5.733 0 0 1 -4.03584 0
1 161 -7.16625 -4.29975 -4.29975 0 0 1 -4.18007 0
1 162 -5.733 -5.733 -5.733 0 0 1 -4.01532 0
1 163 -4.29975 -4.29975 -4.29975 0 0 1 -4.21717 0
2 164 -2.8665 -5.733 -5.733 0 0 1 -4.36006 0
1 165 -1.43325 -4.29975 -4.29975 0 0 1 -3.93968 0
1 166 0 -5.733 -5.733 0 0 1 -3.99927 0
1 167 1.43325 -4.29975 -4.29975 0 0 1 -3.93742 0
1 168 2.8665 -5.733 -5.733 0 0 1 -4.21485 0
1 169 4.29975 -4.29975 -4.29975 0 0 1 -4.21802 0
1 170 5.733 -5.733 -5.733 0 0 1 -4.15073 0
1 171 7.16625 -4.29975 -4.29975 0 0 1 -4.2314 0
1 172 8.5995 -5.733 -5.733 0 0 1 -3.75555 0
1 173 10.0328 -4.29975 -4.29975 0 0 1 -4.21138 0
1 174 11.466 -5.733 -5.733 0 0 1 -3.48566 0
1 175 12.8992 -4.29975 -4.29975 0 0 1 -4.04456 0
1 176 15.7657 -4.29975 -4.29975 0 0 1 -3.08286 0
1 177 -15.7657 -1.43325 -4.29975 0 0 1 -3.47176 0
1 178 -14.3325 -2.8665 -5.733 0 0 1 -3.47751 0
1 179 -12.8992 -1.43325 -4.29975 0 0 1 -3.92811 0
1 180 -11.466 -2.8665 -5.733 0 0 1 -4.19364 0
1 181 -10.0328 -1.43325 -4.29975 0 0 1 -4.22314 0
1 182 -8.5995 -2.8665 -5.733 0 0 1 -4.16985 0
1 183 -7.16625 -1.43325 -4.29975 0 0 1 -4.23599 0
1 184 -5.733 -2.8665 -5.733 0 0 1 -4.23592 0
1 185 -4.29975 -1.43325 -4.29975 0 0 1 -3.94269 0
1 186 -2.8665 -2.8665 -5.733 0 0 1 -3.6307 0
1 190 2.8665 -2.8665 -5.733 0 0 1 -3.67131 0
1 191 4.29975 -1.43325 -4.29975 0 0 1 -3.90674 0
1 192 5.733 -2.8665 -5.733 0 0 1 -4.21496 0
1 193 7.16625 -1.43325 -4.29975 0 0 1 -4.24074 0
1 194 8.5995 -2.8665 -5.733 0 0 1 -4.21791 0
1 195 10.0328 -1.43325 -4.29975 0 0 1 -4.21486 0
1 196 11.466 -2.8665 -5.733 0 0 1 -4.18797 0
1 197 12.8992 -1.43325 -4.29975 0 0 1 -3.92902 0
1 198 14.3325 -2.8665 -5.733 0 0 1 -3.47842 0
1 199 15.7657 -1.43325 -4.29975 0 0 1 -3.47785 0
1 200 -18.6322 1.43325 -4.29975 0 0 1 -2.91768 0
1 201 -17.199 0 -5.733 0 0 1 -3.04077 0
1 202 -15.7657 1.43325 -4.29975 0 0 1 -3.87182 0
1 227 -17.199 2.8665 -5.733 0 0 1 -3.10415 0
1 203 -14.3325 0 -5.733 0 0 1 -3.78582 0
1 204 -12.8992 1.43325 -4.29975 0 0 1 -3.94797 0
1 229 -14.3325 2.8665 -5.733 0 0 1 -3.89909 0
1 205 -11.466 0 -5.733 0 0 1 -4.20076 0
1 206 -10.0328 1.43325 -4.29975 0 0 1 -4.17333 0
1 231 -11.466 2.8665 -5.733 0 0 1 -4.19887 0
1 207 -8.5995 0 -5.733 0 0 1 -4.22756 0
1 208 -7.16625 1.43325 -4.29975 0 0 1 -4.24517 0
1 233 -8.5995 2.8665 -5.733 0 0 1 -4.22631 0
1 209 -5.733 0 -5.733 0 0 1 -4.0974 0
1 210 -4.29975 1.43325 -4.29975 0 0 1 -3.94354 0
1 235 -5.733 2.8665 -5.733 0 0 1 -4.21076 0
1 237 -2.8665 2.8665 -5.733 0 0 1 -3.67545 0
1 241 2.8665 2.8665 -5.733 0 0 1 -3.67919 0
1 216 4.29975 1.43325 -4.29975 0 0 1 -3.92152 0
1 217 5.733 0 -5.733 0 0 1 -4.09284 0
1 243 5.733 2.8665 -5.733 0 0 1 -4.17295 0
1 218 7.16625 1.43325 -4.29975 0 0 1 -4.18917 0
1 219 8.5995 0 -5.733 0 0 1 -4.22398 0
1 245 8.5995 2.8665 -5.733 0 0 1 -4.20198 0
1 220 10.0328 1.43325 -4.29975 0 0 1 -4.2195 0
1 221 11.466 0 -5.733 0 0 1 -4.21485 0
1 247 11.466 2.8665 -5.733 0 0 1 -4.1216 0
1 222 12.8992 1.43325 -4.29975 0 0 1 -3.93884 0
1 223 14.3325 0 -5.733 0 0 1 -3.77862 0
1 249 14.3325 2.8665 -5.733 0 0 1 -3.91568 0
1 224 15.7657 1.43325 -4.29975 0 0 1 -3.87223 0
1 225 17.199 0 -5.733 0 0 1 -3.08159 0
1 226 18.6322 1.43325 -4.29975 0 0 1 -2.92703 0
1 251 17.199 2.8665 -5.733 0 0 1 -3.09479 0
1 228 -15.7657 4.29975 -4.29975 0 0 1 -3.77737 0
1 230 -12.8992 4.29975 -4.29975 0 0 1 -4.19414 0
1 253 -14.3325 5.733 -5.733 0 0 1 -3.30893 0
1 232 -10.0328 4.29975 -4.29975 0 0 1 -4.24048 0
1 255 -11.466 5.733 -5.733 0 0 1 -3.92366 0
1 234 -7.16625 4.29975 -4.29975 0 0 1 -4.18675 0
1 257 -8.5995 5.733 -5.733 0 0 1 -4.19822 0
1 236 -4.29975 4.29975 -4.29975 0 0 1 -4.22999 0
1 259 -5.733 5.733 -5.733 0 0 1 -4.23107 0
1 238 -1.43325 4.29975 -4.29975 0 0 1 -3.85568 0
1 261 -2.8665 5.733 -5.733 0 0 1 -4.16528 0
2 240 1.43325 4.29975 -4.29975 0 0 1 -4.13958 0
2 263 0 5.733 -5.733 0 0 1 -4.32059 0
1 265 2.8665 5.733 -5.733 0 0 1 -4.12539 0
1 242 4.29975 4.29975 -4.29975 0 0 1 -4.17383 0
2 267 5.733 5.733 -5.733 0 0 1 -4.41754 0
1 244 7.16625 4.29975 -4.29975 0 0 1 -4.23748 0
2 269 8.5995 5.733 -5.733 0 0 1 -4.38182 0
1 246 10.0328 4.29975 -4.29975 0 0 1 -4.22084 0
1 271 11.466 5.733 -5.733 0 0 1 -3.89816 0
1 248 12.8992 4.29975 -4.29975 0 0 1 -4.18395 0
1 273 14.3325 5.733 -5.733 0 0 1 -3.30886 0
1 250 15.7657 4.29975 -4.29975 0 0 1 -3.77652 0
1 252 -15.7657 7.16625 -4.29975 0 0 1 -3.07926 0
1 254 -12.8992 7.16625 -4.29975 0 0 1 -3.75576 0
1 256 -10.0328 7.16625 -4.29975 0 0 1 -4.19356 0
1 275 -11.466 8.5995 -5.733 0 0 1 -3.09074 0
1 258 -7.16625 7.16625 -4.29975 0 0 1 -4.21965 0
1 277 -8.5995 8.5995 -5.733 0 0 1 -3.64139 0
1 260 -4.29975 7.16625 -4.29975 0 0 1 -4.23436 0
1 279 -5.733 8.5995 -5.733 0 0 1 -3.88216 0
1 262 -1.43325 7.16625 -4.29975 0 0 1 -4.24092 0
1 281 -2.8665 8.5995 -5.733 0 0 1 -4.21388 0
1 264 1.43325 7.16625 -4.29975 0 0 1 -4.18282 0
1 283 0 8.5995 -5.733 0 0 1 -4.17157 0
1 285 2.8665 8.5995 -5.733 0 0 1 -4.20661 0
1 266 4.29975 7.16625 -4.29975 0 0 1 -4.23818 0
1 287 5.733 8.5995 -5.733 0 0 1 -3.89271 0
1 268 7.16625 7.16625 -4.29975 0 0 1 -4.16866 0
1 289 8.5995 8.5995 -5.733 0 0 1 -3.58958 0
1 270 10.0328 7.16625 -4.29975 0 0 1 -4.19345 0
1 291 11.466 8.5995 -5.733 0 0 1 -3.10101 0
1 272 12.8992 7.16625 -4.29975 0 0 1 -3.79501 0
1 274 15.7657 7.16625 -4.29975 0 0 1 -3.06815 0
1 276 -10.0328 10.0328 -4.29975 0 0 1 -3.25597 0
1 278 -7.16625 10.0328 -4.29975 0 0 1 -3.58356 0
1 280 -4.29975 10.0328 -4.29975 0 0 1 -3.82804 0
1 282 -1.43325 10.0328 -4.29975 0 0 1 -4.03099 0
1 292 -2.8665 11.466 -5.733 0 0 1 -3.07115 0
1 284 1.43325 10.0328 -4.29975 0 0 1 -4.01544 0
1 293 0 11.466 -5.733 0 0 1 -3.2299 0
1 294 2.8665 11.466 -5.733 0 0 1 -3.12252 0
1 286 4.29975 10.0328 -4.29975 0 0 1 -3.88003 0
1 288 7.16625 10.0328 -4.29975 0 0 1 -3.58629 0
1 290 10.0328 10.0328 -4.29975 0 0 1 -3.26347 0
1 295 -7.16625 -10.0328 -1.43325 0 0 1 -3.12125 0
1 296 -4.29975 -10.0328 -1.43325 0 0 1 -3.60579 0
1 297 -1.43325 -10.0328 -1.43325 0 0 1 -3.7742 0
1 298 1.43325 -10.0328 -1.43325 0 0 1 -3.77245 0
1 299 4.29975 -10.0328 -1.43325 0 0 1 -3.60228 0
1 300 7.16625 -10.0328 -1.43325 0 0 1 -3.10966 0
1 301 -12.8992 -7.16625 -1.43325 0 0 1 -3.61923 0
1 302 -11.466 -8.5995 -2.8665 0 0 1 -3.09472 0
1 303 -10.0328 -7.16625 -1.43325 0 0 1 -4.07769 0
1 304 -8.5995 -8.5995 -2.8665 0 0 1 -3.47645 0
1 305 -7.16625 -7.16625 -1.43325 0 0 1 -4.15747 0
1 306 -5.733 -8.5995 -2.8665 0 0 1 -3.85758 0
1 307 -4.29975 -7.16625 -1.43325 0 0 1 -4.23386 0
1 308 -2.8665 -8.5995 -2.8665 0 0 1 -4.0757 0
1 309 -1.43325 -7.16625 -1.43325 0 0 1 -4.22805 0
1 310 0 -8.5995 -2.8665 0 0 1 -4.0613 0
1 311 1.43325 -7.16625 -1.43325 0 0 1 -4.22699 0
1 312 2.8665 -8.5995 -2.8665 0 0 1 -4.0757 0
1 313 4.29975 -7.16625 -1.43325 0 0 1 -4.22165 0
1 314 5.733 -8.5995 -2.8665 0 0 1 -3.87238 0
1 315 7.16625 -7.16625 -1.43325 0 0 1 -4.19389 0
1 316 8.5995 -8.5995 -2.8665 0 0 1 -3.38453 0
1 317 10.0328 -7.16625 -1.43325 0 0 1 -4.06647 0
1 318 11.466 -8.5995 -2.8665 0 0 1 -3.11431 0
1 319 12.8992 -7.16625 -1.43325 0 0 1 -3.61656 0
1 320 -15.7657 -4.29975 -1.43325 0 0 1 -3.47609 0
1 321 -14.3325 -5.733 -2.8665 0 0 1 -3.47842 0
1 322 -12.8992 -4.29975 -1.43325 0 0 1 -3.92811 0
1 323 -11.466 -5.733 -2.8665 0 0 1 -4.19364 0
1 324 -10.0328 -4.29975 -1.43325 0 0 1 -4.17899 0
1 325 -8.5995 -5.733 -2.8665 0 0 1 -4.17057 0
2 326 -7.16625 -4.29975 -1.43325 0 0 1 -4.40966 0
1 327 -5.733 -5.733 -2.8665 0 0 1 -4.24879 0
1 328 -4.29975 -4.29975 -1.43325 0 0 1 -4.18753 0
1 329 -2.8665 -5.733 -2.8665 0 0 1 -4.18605 0
1 330 -1.43325 -4.29975 -1.43325 0 0 1 -4.2152 0
1 331 0 -5.733 -2.8665 0 0 1 -4.23188 0
1 332 1.43325 -4.29975 -1.43325 0 0 1 -4.22068 0
1 333 2.8665 -5.733 -2.8665 0 0 1 -4.14366 0
1 334 4.29975 -4.29975 -1.43325 0 0 1 -4.18188 0
2 335 5.733 -5.733 -2.8665 0 0 1 -4.41689 0
1 336 7.16625 -4.29975 -1.43325 0 0 1 -4.23007 0
2 337 8.5995 -5.733 -2.8665 0 0 1 -4.39926 0
1 338 10.0328 -4.29975 -1.43325 0 0 1 -4.21296 0
1 339 11.466 -5.733 -2.8665 0 0 1 -4.14467 0
1 340 12.8992 -4.29975 -1.43325 0 0 1 -3.93599 0
1 341 14.3325 -5.733 -2.8665 0 0 1 -3.47666 0
1 342 15.7657 -4.29975 -1.43325 0 0 1 -3.44353 0
1 343 -18.6322 -1.43325 -1.43325 0 0 1 -2.91852 0
1 344 -17.199 -2.8665 -2.8665 0 0 1 -3.04147 0
1 346 -14.3325 -2.8665 -2.8665 0 0 1 -3.64202 0
1 348 -11.466 -2.8665 -2.8665 0 0 1 -4.07232 0
1 349 -10.0328 -1.43325 -1.43325 0 0 1 -4.03938 0
1 350 -8.5995 -2.8665 -2.8665 0 0 1 -4.23411 0
1 351 -7.16625 -1.43325 -1.43325 0 0 1 -4.19593 0
1 352 -5.733 -2.8665 -2.8665 0 0 1 -4.22737 0
1 353 -4.29975 -1.43325 -1.43325 0 0 1 -4.22524 0
1 354 -2.8665 -2.8665 -2.8665 0 0 1 -4.0692 0
1 355 -1.43325 -1.43325 -1.43325 0 0 1 -3.94536 0
1 356 0 -2.8665 -2.8665 0 0 1 -3.67306 0
1 357 1.43325 -1.43325 -1.43325 0 0 1 -3.9007 0
1 358 2.8665 -2.8665 -2.8665 0 0 1 -4.07429 0
2 359 4.29975 -1.43325 -1.43325 0 0 1 -4.39485 0
1 360 5.733 -2.8665 -2.8665 0 0 1 -4.19154 0
1 361 7.16625 -1.43325 -1.43325 0 0 1 -4.19241 0
1 362 8.5995 -2.8665 -2.8665 0 0 1 -4.1936 0
1 363 10.0328 -1.43325 -1.43325 0 0 1 -4.07326 0
1 364 11.466 -2.8665 -2.8665 0 0 1 -4.08355 0
1 366 14.3325 -2.8665 -2.8665 0 0 1 -3.63267 0
1 368 17.199 -2.8665 -2.8665 0 0 1 -3.07879 0
1 369 18.6322 -1.43325 -1.43325 0 0 1 -2.93683 0
1 370 -18.6322 1.43325 -1.43325 0 0 1 -3.41434 0
2 371 -17.199 0 -2.8665 0 0 1 -3.45695 0
1 398 -17.199 2.8665 -2.8665 0 0 1 -3.69117 0
1 400 -14.3325 2.8665 -2.8665 0 0 1 -3.6889 0
1 375 -11.466 0 -2.8665 0 0 1 -3.81938 0
1 376 -10.0328 1.43325 -1.43325 0 0 1 -4.07947 0
1 402 -11.466 2.8665 -2.8665 0 0 1 -4.02941 0
1 377 -8.5995 0 -2.8665 0 0 1 -4.22538 0
1 378 -7.16625 1.43325 -1.43325 0 0 1 -4.22738 0
1 404 -8.5995 2.8665 -2.8665 0 0 1 -4.24165 0
1 379 -5.733 0 -2.8665 0 0 1 -4.21709 0
1 380 -4.29975 1.43325 -1.43325 0 0 1 -4.23175 0
1 406 -5.733 2.8665 -2.8665 0 0 1 -4.22582 0
1 381 -2.8665 0 -2.8665 0 0 1 -3.67488 0
1 382 -1.43325 1.43325 -1.43325 0 0 1 -3.90063 0
1 408 -2.8665 2.8665 -2.8665 0 0 1 -4.0562 0
1 384 1.43325 1.43325 -1.43325 0 0 1 -3.96622 0
1 385 2.8665 0 -2.8665 0 0 1 -3.66766 0
1 410 0 2.8665 -2.8665 0 0 1 -3.67328 0
1 412 2.8665 2.8665 -2.8665 0 0 1 -4.05353 0
1 386 4.29975 1.43325 -1.43325 0 0 1 -4.18103 0
1 387 5.733 0 -2.8665 0 0 1 -4.21076 0
1 414 5.733 2.8665 -2.8665 0 0 1 -4.22882 0
1 388 7.16625 1.43325 -1.43325 0 0 1 -4.19417 0
1 389 8.5995 0 -2.8665 0 0 1 -4.23281 0
1 416 8.5995 2.8665 -2.8665 0 0 1 -4.19093 0
1 390 10.0328 1.43325 -1.43325 0 0 1 -4.08123 0
1 391 11.466 0 -2.8665 0 0 1 -3.77297 0
2 418 11.466 2.8665 -2.8665 0 0 1 -4.24738 0
1 420 14.3325 2.8665 -2.8665 0 0 1 -3.64071 0
1 395 17.199 0 -2.8665 0 0 1 -3.3179 0
1 396 18.6322 1.43325 -1.43325 0 0 1 -3.41434 0
1 422 17.199 2.8665 -2.8665 0 0 1 -3.69117 0
1 397 -18.6322 4.29975 -1.43325 0 0 1 -3.27892 0
1 399 -15.7657 4.29975 -1.43325 0 0 1 -3.92219 0
1 424 -17.199 5.733 -2.8665 0 0 1 -3.29315 0
1 401 -12.8992 4.29975 -1.43325 0 0 1 -3.89727 0
1 426 -14.3325 5.733 -2.8665 0 0 1 -4.16536 0
1 403 -10.0328 4.29975 -1.43325 0 0 1 -4.21787 0
1 428 -11.466 5.733 -2.8665 0 0 1 -4.23957 0
1 405 -7.16625 4.29975 -1.43325 0 0 1 -4.23503 0
1 430 -8.5995 5.733 -2.8665 0 0 1 -4.18356 0
1 407 -4.29975 4.29975 -1.43325 0 0 1 -4.13889 0
1 432 -5.733 5.733 -2.8665 0 0 1 -4.22777 0
2 409 -1.43325 4.29975 -1.43325 0 0 1 -4.37697 0
1 434 -2.8665 5.733 -2.8665 0 0 1 -4.22603 0
1 411 1.43325 4.29975 -1.43325 0 0 1 -4.12978 0
1 436 0 5.733 -2.8665 0 0 1 -4.16852 0
1 438 2.8665 5.733 -2.8665 0 0 1 -4.23818 0
1 413 4.29975 4.29975 -1.43325 0 0 1 -4.23409 0
1 440 5.733 5.733 -2.8665 0 0 1 -4.19006 0
1 415 7.16625 4.29975 -1.43325 0 0 1 -4.23161 0
1 442 8.5995 5.733 -2.8665 0 0 1 -4.19922 0
1 417 10.0328 4.29975 -1.43325 0 0 1 -4.21501 0
1 444 11.466 5.733 -2.8665 0 0 1 -4.18509 0
1 419 12.8992 4.29975 -1.43325 0 0 1 -3.94283 0
1 446 14.3325 5.733 -2.8665 0 0 1 -4.18388 0
1 421 15.7657 4.29975 -1.43325 0 0 1 -3.90434 0
1 423 18.6322 4.29975 -1.43325 0 0 1 -3.27388 0
1 448 17.199 5.733 -2.8665 0 0 1 -3.30424 0
1 425 -15.7657 7.16625 -1.43325 0 0 1 -3.54272 0
2 427 -12.8992 7.16625 -1.43325 0 0 1 -4.37657 0
1 449 -14.3325 8.5995 -2.8665 0 0 1 -3.2825 0
1 429 -10.0328 7.16625 -1.43325 0 0 1 -4.11051 0
1 451 -11.466 8.5995 -2.8665 0 0 1 -3.88463 0
1 431 -7.16625 7.16625 -1.43325 0 0 1 -4.1481 0
1 453 -8.5995 8.5995 -2.8665 0 0 1 -4.12281 0
1 433 -4.29975 7.16625 -1.43325 0 0 1 -4.21364 0
1 455 -5.733 8.5995 -2.8665 0 0 1 -4.18152 0
1 435 -1.43325 7.16625 -1.43325 0 0 1 -4.10661 0
1 457 -2.8665 8.5995 -2.8665 0 0 1 -4.19187 0
1 437 1.43325 7.16625 -1.43325 0 0 1 -4.17027 0
1 459 0 8.5995 -2.8665 0 0 1 -4.14786 0
1 461 2.8665 8.5995 -2.8665 0 0 1 -4.19748 0
1 439 4.29975 7.16625 -1.43325 0 0 1 -4.15285 0
1 463 5.733 8.5995 -2.8665 0 0 1 -4.13471 0
1 441 7.16625 7.16625 -1.43325 0 0 1 -4.15552 0
1 465 8.5995 8.5995 -2.8665 0 0 1 -4.1652 0
1 443 10.0328 7.16625 -1.43325 0 0 1 -4.15929 0
1 467 11.466 8.5995 -2.8665 0 0 1 -3.93146 0
1 445 12.8992 7.16625 -1.43325 0 0 1 -4.12172 0
1 469 14.3325 8.5995 -2.8665 0 0 1 -3.24198 0
1 447 15.7657 7.16625 -1.43325 0 0 1 -3.62214 0
2 450 -12.8992 10.0328 -1.43325 0 0 1 -3.44363 0
2 452 -10.0328 10.0328 -1.43325 0 0 1 -4.0716 0
2 454 -7.16625 10.0328 -1.43325 0 0 1 -4.27013 0
2 470 -8.5995 11.466 -2.8665 0 0 1 -3.13926 0
2 456 -4.29975 10.0328 -1.43325 0 0 1 -4.36382 0
2 471 -5.733 11.466 -2.8665 0 0 1 -3.60967 0
2 458 -1.43325 10.0328 -1.43325 0 0 1 -4.38035 0
2 473 -2.8665 11.466 -2.8665 0 0 1 -3.93914 0
2 460 1.43325 10.0328 -1.43325 0 0 1 -4.35856 0
2 475 0 11.466 -2.8665 0 0 1 -3.94074 0
1 477 2.8665 11.466 -2.8665 0 0 1 -3.629 0
2 462 4.29975 10.0328 -1.43325 0 0 1 -4.3706 0
2 479 5.733 11.466 -2.8665 0 0 1 -3.55511 0
2 464 7.16625 10.0328 -1.43325 0 0 1 -4.26048 0
1 480 8.5995 11.466 -2.8665 0 0 1 -3.02475 0
2 466 10.0328 10.0328 -1.43325 0 0 1 -4.09961 0
2 468 12.8992 10.0328 -1.43325 0 0 1 -3.42631 0
1 472 -4.29975 12.8992 -1.43325 0 0 1 -2.98225 0
2 474 -1.43325 12.8992 -1.43325 0 0 1 -3.25819 0
1 476 1.43325 12.8992 -1.43325 0 0 1 -3.09841 0
2 478 4.29975 12.8992 -1.43325 0 0 1 -3.10148 0
1 481 -10.0328 -10.0328 1.43325 0 0 1 -3.10734 0
1 482 -7.16625 -10.0328 1.43325 0 0 1 -3.60697 0
1 483 -4.29975 -10.0328 1.43325 0 0 1 -3.9155 0
1 688 -5.733 -11.466 2.8665 0 0 1 -2.92972 0
1 484 -2.8665 -11.466 0 0 0 1 -3.10967 0
1 485 -1.43325 -10.0328 1.43325 0 0 1 -4.04899 0
1 690 -2.8665 -11.466 2.8665 0 0 1 -3.26921 0
1 486 0 -11.466 0 0 0 1 -3.26921 0
1 487 1.43325 -10.0328 1.43325 0 0 1 -4.04723 0
1 488 2.8665 -11.466 0 0 0 1 -3.10967 0
1 692 0 -11.466 2.8665 0 0 1 -3.42368 0
1 694 2.8665 -11.466 2.8665 0 0 1 -3.26921 0
1 489 4.29975 -10.0328 1.43325 0 0 1 -3.91198 0
1 696 5.733 -11.466 2.8665 0 0 1 -2.93057 0
1 490 7.16625 -10.0328 1.43325 0 0 1 -3.6008 0
1 491 10.0328 -10.0328 1.43325 0 0 1 -3.09925 0
1 492 -15.7657 -7.16625 1.43325 0 0 1 -3.10606 0
1 493 -12.8992 -7.16625 1.43325 0 0 1 -3.76942 0
1 494 -11.466 -8.5995 0 0 0 1 -3.45674 0
1 495 -10.0328 -7.16625 1.43325 0 0 1 -4.19985 0
1 701 -11.466 -8.5995 2.8665 0 0 1 -3.56691 0
1 496 -8.5995 -8.5995 0 0 0 1 -3.91411 0
1 497 -7.16625 -7.16625 1.43325 0 0 1 -4.23562 0
1 703 -8.5995 -8.5995 2.8665 0 0 1 -4.06659 0
1 498 -5.733 -8.5995 0 0 0 1 -4.07394 0
1 499 -4.29975 -7.16625 1.43325 0 0 1 -4.23123 0
1 705 -5.733 -8.5995 2.8665 0 0 1 -4.19012 0
1 500 -2.8665 -8.5995 0 0 0 1 -4.20472 0
1 501 -1.43325 -7.16625 1.43325 0 0 1 -4.23095 0
1 707 -2.8665 -8.5995 2.8665 0 0 1 -4.21744 0
1 502 0 -8.5995 0 0 0 1 -4.22396 0
1 503 1.43325 -7.16625 1.43325 0 0 1 -4.22989 0
1 504 2.8665 -8.5995 0 0 0 1 -4.16052 0
1 709 0 -8.5995 2.8665 0 0 1 -4.22924 0
1 711 2.8665 -8.5995 2.8665 0 0 1 -4.22396 0
1 505 4.29975 -7.16625 1.43325 0 0 1 -4.2258 0
1 506 5.733 -8.5995 0 0 0 1 -4.04488 0
1 713 5.733 -8.5995 2.8665 0 0 1 -4.19749 0
1 507 7.16625 -7.16625 1.43325 0 0 1 -4.22277 0
2 508 8.5995 -8.5995 0 0 0 1 -4.11853 0
1 715 8.5995 -8.5995 2.8665 0 0 1 -4.01852 0
1 509 10.0328 -7.16625 1.43325 0 0 1 -4.19809 0
1 510 11.466 -8.5995 0 0 0 1 -3.40581 0
1 717 11.466 -8.5995 2.8665 0 0 1 -3.61335 0
1 511 12.8992 -7.16625 1.43325 0 0 1 -3.79464 0
1 512 15.7657 -7.16625 1.43325 0 0 1 -3.03454 0
1 513 -18.6322 -4.29975 1.43325 0 0 1 -3.09435 0
1 514 -17.199 -5.733 0 0 0 1 -3.08273 0
1 515 -15.7657 -4.29975 1.43325 0 0 1 -3.89943 0
1 721 -17.199 -5.733 2.8665 0 0 1 -3.4514 0
1 516 -14.3325 -5.733 0 0 0 1 -3.78815 0
1 517 -12.8992 -4.29975 1.43325 0 0 1 -3.94773 0
1 723 -14.3325 -5.733 2.8665 0 0 1 -3.99221 0
1 518 -11.466 -5.733 0 0 0 1 -4.15677 0
1 519 -10.0328 -4.29975 1.43325 0 0 1 -4.17974 0
2 725 -11.466 -5.733 2.8665 0 0 1 -4.39559 0
1 520 -8.5995 -5.733 0 0 0 1 -4.23411 0
1 521 -7.16625 -4.29975 1.43325 0 0 1 -4.19417 0
1 727 -8.5995 -5.733 2.8665 0 0 1 -4.1859 0
1 522 -5.733 -5.733 0 0 0 1 -4.22989 0
1 523 -4.29975 -4.29975 1.43325 0 0 1 -4.23923 0
1 729 -5.733 -5.733 2.8665 0 0 1 -4.23095 0
1 524 -2.8665 -5.733 0 0 0 1 -4.23095 0
1 525 -1.43325 -4.29975 1.43325 0 0 1 -4.23095 0
1 731 -2.8665 -5.733 2.8665 0 0 1 -4.23271 0
1 526 0 -5.733 0 0 0 1 -4.18942 0
1 527 1.43325 -4.29975 1.43325 0 0 1 -4.22898 0
2 528 2.8665 -5.733 0 0 0 1 -4.40253 0
1 733 0 -5.733 2.8665 0 0 1 -4.23923 0
1 735 2.8665 -5.733 2.8665 0 0 1 -4.18942 0
1 529 4.29975 -4.29975 1.43325 0 0 1 -4.23468 0
1 530 5.733 -5.733 0 0 0 1 -4.15736 0
1 737 5.733 -5.733 2.8665 0 0 1 -4.23832 0
1 531 7.16625 -4.29975 1.43325 0 0 1 -4.22477 0
1 532 8.5995 -5.733 0 0 0 1 -4.15205 0
1 739 8.5995 -5.733 2.8665 0 0 1 -4.23747 0
1 533 10.0328 -4.29975 1.43325 0 0 1 -4.22229 0
1 534 11.466 -5.733 0 0 0 1 -4.21309 0
1 741 11.466 -5.733 2.8665 0 0 1 -4.21063 0
1 535 12.8992 -4.29975 1.43325 0 0 1 -3.85792 0
1 536 14.3325 -5.733 0 0 0 1 -3.77138 0
1 743 14.3325 -5.733 2.8665 0 0 1 -4.02403 0
2 537 15.7657 -4.29975 1.43325 0 0 1 -4.11038 0
1 538 17.199 -5.733 0 0 0 1 -3.06106 0
2 539 18.6322 -4.29975 1.43325 0 0 1 -3.15161 0
1 745 17.199 -5.733 2.8665 0 0 1 -3.43098 0
1 540 -18.6322 -1.43325 1.43325 0 0 1 -3.4328 0
1 541 -17.199 -2.8665 0 0 0 1 -3.31847 0
1 748 -17.199 -2.8665 2.8665 0 0 1 -3.87689 0
1 750 -14.3325 -2.8665 2.8665 0 0 1 -3.68247 0
1 545 -11.466 -2.8665 0 0 0 1 -3.81627 0
2 546 -10.0328 -1.43325 1.43325 0 0 1 -4.29304 0
1 752 -11.466 -2.8665 2.8665 0 0 1 -4.03033 0
1 547 -8.5995 -2.8665 0 0 0 1 -4.22496 0
1 548 -7.16625 -1.43325 1.43325 0 0 1 -4.19593 0
1 754 -8.5995 -2.8665 2.8665 0 0 1 -4.23411 0
1 549 -5.733 -2.8665 0 0 0 1 -4.22814 0
1 550 -4.29975 -1.43325 1.43325 0 0 1 -4.2318 0
1 756 -5.733 -2.8665 2.8665 0 0 1 -4.22919 0
1 551 -2.8665 -2.8665 0 0 0 1 -4.23025 0
1 552 -1.43325 -1.43325 1.43325 0 0 1 -4.23214 0
1 758 -2.8665 -2.8665 2.8665 0 0 1 -4.23271 0
1 553 0 -2.8665 0 0 0 1 -4.22361 0
1 554 1.43325 -1.43325 1.43325 0 0 1 -4.2369 0
1 555 2.8665 -2.8665 0 0 0 1 -4.18501 0
1 760 0 -2.8665 2.8665 0 0 1 -4.2318 0
1 762 2.8665 -2.8665 2.8665 0 0 1 -4.23747 0
1 556 4.29975 -1.43325 1.43325 0 0 1 -4.19417 0
1 557 5.733 -2.8665 0 0 0 1 -4.2403 0
1 764 5.733 -2.8665 2.8665 0 0 1 -4.22828 0
1 558 7.16625 -1.43325 1.43325 0 0 1 -4.19593 0
1 559 8.5995 -2.8665 0 0 0 1 -4.23366 0
1 766 8.5995 -2.8665 2.8665 0 0 1 -4.22862 0
1 560 10.0328 -1.43325 1.43325 0 0 1 -4.08342 0
1 561 11.466 -2.8665 0 0 0 1 -3.8111 0
1 768 11.466 -2.8665 2.8665 0 0 1 -4.07159 0
1 770 14.3325 -2.8665 2.8665 0 0 1 -3.66208 0
1 565 17.199 -2.8665 0 0 0 1 -3.29441 0
1 566 18.6322 -1.43325 1.43325 0 0 1 -3.39909 0
1 772 17.199 -2.8665 2.8665 0 0 1 -3.86369 0
1 567 -20.0655 0 0 0 0 1 -2.9379 0
1 596 -20.0655 2.8665 0 0 0 1 -3.07771 0
1 774 -20.0655 0 2.8665 0 0 1 -3.2399 0
1 803 -20.0655 2.8665 2.8665 0 0 1 -3.11243 0
1 568 -18.6322 1.43325 1.43325 0 0 1 -3.75498 0
1 598 -17.199 2.8665 0 0 0 1 -3.65575 0
1 776 -17.199 0 2.8665 0 0 1 -3.66263 0
1 805 -17.199 2.8665 2.8665 0 0 1 -3.95094 0
1 807 -14.3325 2.8665 2.8665 0 0 1 -3.6074 0
1 573 -11.466 0 0 0 0 1 -3.40501 0
1 574 -10.0328 1.43325 1.43325 0 0 1 -4.02745 0
2 602 -11.466 2.8665 0 0 0 1 -4.0134 0
1 780 -11.466 0 2.8665 0 0 1 -3.81657 0
1 809 -11.466 2.8665 2.8665 0 0 1 -3.95274 0
1 575 -8.5995 0 0 0 0 1 -4.23239 0
1 576 -7.16625 1.43325 1.43325 0 0 1 -4.23987 0
1 604 -8.5995 2.8665 0 0 0 1 -4.13911 0
1 782 -8.5995 0 2.8665 0 0 1 -4.22729 0
1 811 -8.5995 2.8665 2.8665 0 0 1 -4.16442 0
1 577 -5.733 0 0 0 0 1 -4.22744 0
1 578 -4.29975 1.43325 1.43325 0 0 1 -4.18708 0
1 606 -5.733 2.8665 0 0 0 1 -4.23412 0
1 784 -5.733 0 2.8665 0 0 1 -4.22862 0
1 813 -5.733 2.8665 2.8665 0 0 1 -4.15535 0
1 579 -2.8665 0 0 0 0 1 -4.21533 0
1 580 -1.43325 1.43325 1.43325 0 0 1 -4.24017 0
1 608 -2.8665 2.8665 0 0 0 1 -4.22845 0
1 786 -2.8665 0 2.8665 0 0 1 -4.23234 0
1 815 -2.8665 2.8665 2.8665 0 0 1 -4.1339 0
1 581 0 0 0 0 0 1 -4.09916 0
1 582 1.43325 1.43325 1.43325 0 0 1 -4.22708 0
1 583 2.8665 0 0 0 0 1 -4.21427 0
1 610 0 2.8665 0 0 0 1 -4.20718 0
1 612 2.8665 2.8665 0 0 0 1 -4.22531 0
1 788 0 0 2.8665 0 0 1 -4.21794 0
1 790 2.8665 0 2.8665 0 0 1 -4.22406 0
1 817 0 2.8665 2.8665 0 0 1 -4.11508 0
1 819 2.8665 2.8665 2.8665 0 0 1 -4.17645 0
1 584 4.29975 1.43325 1.43325 0 0 1 -4.19625 0
1 585 5.733 0 0 0 0 1 -4.22702 0
1 614 5.733 2.8665 0 0 0 1 -4.22583 0
1 792 5.733 0 2.8665 0 0 1 -4.22674 0
1 821 5.733 2.8665 2.8665 0 0 1 -4.14888 0
2 586 7.16625 1.43325 1.43325 0 0 1 -4.40777 0
1 587 8.5995 0 0 0 0 1 -4.22493 0
1 616 8.5995 2.8665 0 0 0 1 -4.23564 0
1 794 8.5995 0 2.8665 0 0 1 -4.2282 0
1 823 8.5995 2.8665 2.8665 0 0 1 -4.14282 0
1 588 10.0328 1.43325 1.43325 0 0 1 -4.02656 0
1 589 11.466 0 0 0 0 1 -3.46108 0
1 618 11.466 2.8665 0 0 0 1 -3.76588 0
1 796 11.466 0 2.8665 0 0 1 -3.81405 0
1 825 11.466 2.8665 2.8665 0 0 1 -4.0407 0
1 827 14.3325 2.8665 2.8665 0 0 1 -3.6122 0
1 594 18.6322 1.43325 1.43325 0 0 1 -3.75241 0
2 622 17.199 2.8665 0 0 0 1 -3.86873 0
1 800 17.199 0 2.8665 0 0 1 -3.66318 0
1 829 17.199 2.8665 2.8665 0 0 1 -3.9046 0
1 595 20.0655 0 0 0 0 1 -2.93615 0
1 624 20.0655 2.8665 0 0 0 1 -3.0378 0
1 802 20.0655 0 2.8665 0 0 1 -3.23373 0
1 831 20.0655 2.8665 2.8665 0 0 1 -3.12096 0
1 597 -18.6322 4.29975 1.43325 0 0 1 -3.55537 0
1 599 -15.7657 4.29975 1.43325 0 0 1 -3.85029 0
1 625 -17.199 5.733 0 0 0 1 -3.55783 0
2 832 -17.199 5.733 2.8665 0 0 1 -3.78803 0
1 601 -12.8992 4.29975 1.43325 0 0 1 -3.87094 0
1 627 -14.3325 5.733 0 0 0 1 -4.05496 0
2 834 -14.3325 5.733 2.8665 0 0 1 -4.35129 0
1 603 -10.0328 4.29975 1.43325 0 0 1 -4.13383 0
1 629 -11.466 5.733 0 0 0 1 -4.04402 0
2 836 -11.466 5.733 2.8665 0 0 1 -4.36281 0
1 605 -7.16625 4.29975 1.43325 0 0 1 -4.10117 0
2 631 -8.5995 5.733 0 0 0 1 -4.39474 0
2 838 -8.5995 5.733 2.8665 0 0 1 -4.38468 0
2 607 -4.29975 4.29975 1.43325 0 0 1 -4.37988 0
1 633 -5.733 5.733 0 0 0 1 -4.14549 0
2 840 -5.733 5.733 2.8665 0 0 1 -4.37019 0
1 609 -1.43325 4.29975 1.43325 0 0 1 -4.09662 0