ITEM: TIMESTEP
0
ITEM: NUMBER OF ATOMS
1225
ITEM: BOX BOUNDS pp pp pp
-2.5000000000000000e+01 2.5000000000000000e+01
-2.5000000000000000e+01 2.5000000000000000e+01
-2.5000000000000000e+01 2.5000000000000000e+01
ITEM: ATOMS type id x y z c_outsp[1] c_outsp[2] c_outsp[3] c_peAtom c_keAtom
1 1 -4.29975 -7.16625 -10.0328 0 0 1 -3.2978 0
1 2 -1.43325 -7.16625 -10.0328 0 0 1 -3.60869 0
1 3 1.43325 -7.16625 -10.0328 0 0 1 -3.60869 0
1 4 4.29975 -7.16625 -10.0328 0 0 1 -3.2978 0
1 5 -10.0328 -4.29975 -10.0328 0 0 1 -3.29736 0
1 6 -7.16625 -4.29975 -10.0328 0 0 1 -3.62257 0
1 7 -4.29975 -4.29975 -10.0328 0 0 1 -3.90437 0
1 8 -2.8665 -5.733 -11.466 0 0 1 -3.10795 0
1 9 -1.43325 -4.29975 -10.0328 0 0 1 -4.03556 0
1 10 0 -5.733 -11.466 0 0 1 -3.26807 0
1 11 1.43325 -4.29975 -10.0328 0 0 1 -4.03556 0
1 12 2.8665 -5.733 -11.466 0 0 1 -3.10795 0
1 13 4.29975 -4.29975 -10.0328 0 0 1 -3.90437 0
1 14 7.16625 -4.29975 -10.0328 0 0 1 -3.62257 0
1 15 10.0328 -4.29975 -10.0328 0 0 1 -3.29736 0
1 16 -12.8992 -1.43325 -10.0328 0 0 1 -3.10909 0
1 17 -10.0328 -1.43325 -10.0328 0 0 1 -3.76147 0
1 18 -8.5995 -2.8665 -11.466 0 0 1 -3.09519 0
1 19 -7.16625 -1.43325 -10.0328 0 0 1 -4.04899 0
1 20 -5.733 -2.8665 -11.466 0 0 1 -3.2814 0
1 21 -4.29975 -1.43325 -10.0328 0 0 1 -4.03671 0
1 22 -2.8665 -2.8665 -11.466 0 0 1 -3.43572 0
1 23 -1.43325 -1.43325 -10.0328 0 0 1 -3.75803 0
1 24 0 -2.8665 -11.466 0 0 1 -3.43528 0
1 25 1.43325 -1.43325 -10.0328 0 0 1 -3.75803 0
1 26 2.8665 -2.8665 -11.466 0 0 1 -3.43572 0
1 27 4.29975 -1.43325 -10.0328 0 0 1 -4.03671 0
1 28 5.733 -2.8665 -11.466 0 0 1 -3.2814 0
1 29 7.16625 -1.43325 -10.0328 0 0 1 -4.04899 0
1 30 8.5995 -2.8665 -11.466 0 0 1 -3.09519 0
1 31 10.0328 -1.43325 -10.0328 0 0 1 -3.76147 0
1 32 12.8992 -1.43325 -10.0328 0 0 1 -3.10909 0
1 33 -12.8992 1.43325 -10.0328 0 0 1 -3.10909 0
1 34 -10.0328 1.43325 -10.0328 0 0 1 -3.76147 0
1 35 -8.5995 0 -11.466 0 0 1 -3.26921 0
1 36 -7.16625 1.43325 -10.0328 0 0 1 -4.04899 0
1 51 -8.5995 2.8665 -11.466 0 0 1 -3.09519 0
1 37 -5.733 0 -11.466 0 0 1 -3.44918 0
1 38 -4.29975 1.43325 -10.0328 0 0 1 -4.03671 0
1 53 -5.733 2.8665 -11.466 0 0 1 -3.2814 0
1 39 -2.8665 0 -11.466 0 0 1 -3.43528 0
1 40 -1.43325 1.43325 -10.0328 0 0 1 -3.75803 0
1 55 -2.8665 2.8665 -11.466 0 0 1 -3.43572 0
1 41 0 0 -11.466 0 0 1 -3.29243 0
1 42 1.43325 1.43325 -10.0328 0 0 1 -3.75803 0
1 43 2.8665 0 -11.466 0 0 1 -3.43528 0
1 57 0 2.8665 -11.466 0 0 1 -3.43528 0
1 59 2.8665 2.8665 -11.466 0 0 1 -3.43572 0
1 44 4.29975 1.43325 -10.0328 0 0 1 -4.03671 0
1 45 5.733 0 -11.466 0 0 1 -3.44918 0
1 61 5.733 2.8665 -11.466 0 0 1 -3.2814 0
1 46 7.16625 1.43325 -10.0328 0 0 1 -4.04899 0
1 47 8.5995 0 -11.466 0 0 1 -3.26921 0
1 63 8.5995 2.8665 -11.466 0 0 1 -3.09519 0
1 48 10.0328 1.43325 -10.0328 0 0 1 -3.76147 0
1 49 12.8992 1.43325 -10.0328 0 0 1 -3.10909 0
1 50 -10.0328 4.29975 -10.0328 0 0 1 -3.29736 0
1 52 -7.16625 4.29975 -10.0328 0 0 1 -3.62257 0
1 54 -4.29975 4.29975 -10.0328 0 0 1 -3.90437 0
1 56 -1.43325 4.29975 -10.0328 0 0 1 -4.03556 0
1 66 -2.8665 5.733 -11.466 0 0 1 -3.10795 0
1 58 1.43325 4.29975 -10.0328 0 0 1 -4.03556 0
1 68 0 5.733 -11.466 0 0 1 -3.26807 0
1 70 2.8665 5.733 -11.466 0 0 1 -3.10795 0
1 60 4.29975 4.29975 -10.0328 0 0 1 -3.90437 0
1 62 7.16625 4.29975 -10.0328 0 0 1 -3.62257 0
1 64 10.0328 4.29975 -10.0328 0 0 1 -3.29736 0
1 65 -4.29975 7.16625 -10.0328 0 0 1 -3.2978 0
1 67 -1.43325 7.16625 -10.0328 0 0 1 -3.60869 0
1 69 1.43325 7.16625 -10.0328 0 0 1 -3.60869 0
1 71 4.29975 7.16625 -10.0328 0 0 1 -3.2978 0
1 72 -4.29975 -10.0328 -7.16625 0 0 1 -3.2978 0
1 73 -1.43325 -10.0328 -7.16625 0 0 1 -3.60869 0
1 74 1.43325 -10.0328 -7.16625 0 0 1 -3.60869 0
1 75 4.29975 -10.0328 -7.16625 0 0 1 -3.2978 0
1 76 -12.8992 -7.16625 -7.16625 0 0 1 -3.09633 0
1 77 -10.0328 -7.16625 -7.16625 0 0 1 -3.62143 0
1 78 -7.16625 -7.16625 -7.16625 0 0 1 -3.79545 0
1 79 -5.733 -8.5995 -8.5995 0 0 1 -3.09691 0
1 80 -4.29975 -7.16625 -7.16625 0 0 1 -4.19029 0
1 81 -2.8665 -8.5995 -8.5995 0 0 1 -3.62085 0
1 82 -1.43325 -7.16625 -7.16625 0 0 1 -4.21686 0
1 83 0 -8.5995 -8.5995 0 0 1 -3.62226 0
1 84 1.43325 -7.16625 -7.16625 0 0 1 -4.21686 0
1 85 2.8665 -8.5995 -8.5995 0 0 1 -3.62085 0
1 86 4.29975 -7.16625 -7.16625 0 0 1 -4.19029 0
1 87 5.733 -8.5995 -8.5995 0 0 1 -3.09691 0
1 88 7.16625 -7.16625 -7.16625 0 0 1 -3.79545 0
1 89 10.0328 -7.16625 -7.16625 0 0 1 -3.62143 0
1 90 12.8992 -7.16625 -7.16625 0 0 1 -3.09633 0
1 91 -15.7657 -4.29975 -7.16625 0 0 1 -3.09633 0
1 92 -12.8992 -4.29975 -7.16625 0 0 1 -3.92835 0
1 93 -11.466 -5.733 -8.5995 0 0 1 -3.29794 0
1 94 -10.0328 -4.29975 -7.16625 0 0 1 -4.20091 0
1 95 -8.5995 -5.733 -8.5995 0 0 1 -3.63486 0
1 96 -7.16625 -4.29975 -7.16625 0 0 1 -4.22024 0
1 97 -5.733 -5.733 -8.5995 0 0 1 -3.92963 0
1 98 -4.29975 -4.29975 -7.16625 0 0 1 -4.22011 0
1 99 -2.8665 -5.733 -8.5995 0 0 1 -4.2023 0
1 100 -1.43325 -4.29975 -7.16625 0 0 1 -3.94093 0
1 101 0 -5.733 -8.5995 0 0 1 -4.20243 0
1 102 1.43325 -4.29975 -7.16625 0 0 1 -3.94093 0
1 103 2.8665 -5.733 -8.5995 0 0 1 -4.2023 0
1 104 4.29975 -4.29975 -7.16625 0 0 1 -4.22011 0
1 105 5.733 -5.733 -8.5995 0 0 1 -3.92963 0
1 106 7.16625 -4.29975 -7.16625 0 0 1 -4.22024 0
1 107 8.5995 -5.733 -8.5995 0 0 1 -3.63486 0
1 108 10.0328 -4.29975 -7.16625 0 0 1 -4.20091 0
1 109 11.466 -5.733 -8.5995 0 0 1 -3.29794 0
1 110 12.8992 -4.29975 -7.16625 0 0 1 -3.92835 0
1 111 15.7657 -4.29975 -7.16625 0 0 1 -3.09633 0
1 112 -15.7657 -1.43325 -7.16625 0 0 1 -3.62028 0
1 113 -14.3325 -2.8665 -8.5995 0 0 1 -3.2978 0
1 114 -12.8992 -1.43325 -7.16625 0 0 1 -4.19976 0
1 115 -11.466 -2.8665 -8.5995 0 0 1 -3.91678 0
1 116 -10.0328 -1.43325 -7.16625 0 0 1 -4.23828 0
1 117 -8.5995 -2.8665 -8.5995 0 0 1 -4.20111 0
1 118 -7.16625 -1.43325 -7.16625 0 0 1 -4.19301 0
1 119 -5.733 -2.8665 -8.5995 0 0 1 -4.21277 0
1 120 -4.29975 -1.43325 -7.16625 0 0 1 -3.90841 0
1 121 -2.8665 -2.8665 -8.5995 0 0 1 -4.05997 0
1 123 0 -2.8665 -8.5995 0 0 1 -3.67434 0
1 125 2.8665 -2.8665 -8.5995 0 0 1 -4.05997 0
1 126 4.29975 -1.43325 -7.16625 0 0 1 -3.90841 0
1 127 5.733 -2.8665 -8.5995 0 0 1 -4.21277 0
1 128 7.16625 -1.43325 -7.16625 0 0 1 -4.19301 0
1 129 8.5995 -2.8665 -8.5995 0 0 1 -4.20111 0
1 130 10.0328 -1.43325 -7.16625 0 0 1 -4.23828 0
1 131 11.466 -2.8665 -8.5995 0 0 1 -3.91678 0
1 132 12.8992 -1.43325 -7.16625 0 0 1 -4.19976 0
1 133 14.3325 -2.8665 -8.5995 0 0 1 -3.2978 0
1 134 15.7657 -1.43325 -7.16625 0 0 1 -3.62028 0
1 135 -15.7657 1.43325 -7.16625 0 0 1 -3.62028 0
1 136 -14.3325 0 -8.5995 0 0 1 -3.60812 0
1 137 -12.8992 1.43325 -7.16625 0 0 1 -4.20543 0
1 159 -14.3325 2.8665 -8.5995 0 0 1 -3.2978 0
1 138 -11.466 0 -8.5995 0 0 1 -4.06021 0
1 139 -10.0328 1.43325 -7.16625 0 0 1 -4.1858 0
1 161 -11.466 2.8665 -8.5995 0 0 1 -3.91502 0
1 140 -8.5995 0 -8.5995 0 0 1 -4.21216 0
1 141 -7.16625 1.43325 -7.16625 0 0 1 -4.20598 0
1 163 -8.5995 2.8665 -8.5995 0 0 1 -4.19759 0
1 142 -5.733 0 -8.5995 0 0 1 -4.20952 0
1 143 -4.29975 1.43325 -7.16625 0 0 1 -3.91352 0
1 165 -5.733 2.8665 -8.5995 0 0 1 -4.20926 0
1 144 -2.8665 0 -8.5995 0 0 1 -3.67083 0
1 167 -2.8665 2.8665 -8.5995 0 0 1 -4.05645 0
1 148 2.8665 0 -8.5995 0 0 1 -3.67083 0
1 169 0 2.8665 -8.5995 0 0 1 -3.67083 0
1 171 2.8665 2.8665 -8.5995 0 0 1 -4.05645 0
1 149 4.29975 1.43325 -7.16625 0 0 1 -3.91352 0
1 150 5.733 0 -8.5995 0 0 1 -4.20952 0
1 173 5.733 2.8665 -8.5995 0 0 1 -4.20926 0
1 151 7.16625 1.43325 -7.16625 0 0 1 -4.20598 0
1 152 8.5995 0 -8.5995 0 0 1 -4.21216 0
1 175 8.5995 2.8665 -8.5995 0 0 1 -4.19759 0
1 153 10.0328 1.43325 -7.16625 0 0 1 -4.1858 0
1 154 11.466 0 -8.5995 0 0 1 -4.06021 0
1 177 11.466 2.8665 -8.5995 0 0 1 -3.91502 0
1 155 12.8992 1.43325 -7.16625 0 0 1 -4.20543 0
1 156 14.3325 0 -8.5995 0 0 1 -3.60812 0
1 179 14.3325 2.8665 -8.5995 0 0 1 -3.2978 0
1 157 15.7657 1.43325 -7.16625 0 0 1 -3.62028 0
1 158 -15.7657 4.29975 -7.16625 0 0 1 -3.09633 0
1 160 -12.8992 4.29975 -7.16625 0 0 1 -3.92569 0
1 162 -10.0328 4.29975 -7.16625 0 0 1 -4.21042 0
1 182 -11.466 5.733 -8.5995 0 0 1 -3.29794 0
1 164 -7.16625 4.29975 -7.16625 0 0 1 -4.17901 0
1 184 -8.5995 5.733 -8.5995 0 0 1 -3.63311 0
1 166 -4.29975 4.29975 -7.16625 0 0 1 -4.18628 0
1 186 -5.733 5.733 -8.5995 0 0 1 -3.92612 0
1 168 -1.43325 4.29975 -7.16625 0 0 1 -3.90841 0
1 188 -2.8665 5.733 -8.5995 0 0 1 -4.19878 0
1 170 1.43325 4.29975 -7.16625 0 0 1 -3.90841 0
1 190 0 5.733 -8.5995 0 0 1 -4.19891 0
1 192 2.8665 5.733 -8.5995 0 0 1 -4.19878 0
1 172 4.29975 4.29975 -7.16625 0 0 1 -4.18628 0
1 194 5.733 5.733 -8.5995 0 0 1 -3.92612 0
1 174 7.16625 4.29975 -7.16625 0 0 1 -4.17901 0
1 196 8.5995 5.733 -8.5995 0 0 1 -3.63311 0
1 176 10.0328 4.29975 -7.16625 0 0 1 -4.21042 0
1 198 11.466 5.733 -8.5995 0 0 1 -3.29794 0
1 178 12.8992 4.29975 -7.16625 0 0 1 -3.92569 0
1 180 15.7657 4.29975 -7.16625 0 0 1 -3.09633 0
1 181 -12.8992 7.16625 -7.16625 0 0 1 -3.09633 0
1 183 -10.0328 7.16625 -7.16625 0 0 1 -3.61876 0
1 185 -7.16625 7.16625 -7.16625 0 0 1 -3.79817 0
1 187 -4.29975 7.16625 -7.16625 0 0 1 -4.19147 0
1 200 -5.733 8.5995 -8.5995 0 0 1 -3.09691 0
1 189 -1.43325 7.16625 -7.16625 0 0 1 -4.21805 0
1 202 -2.8665 8.5995 -8.5995 0 0 1 -3.62085 0
1 191 1.43325 7.16625 -7.16625 0 0 1 -4.21805 0
1 204 0 8.5995 -8.5995 0 0 1 -3.62226 0
1 206 2.8665 8.5995 -8.5995 0 0 1 -3.62085 0
1 193 4.29975 7.16625 -7.16625 0 0 1 -4.19147 0
1 208 5.733 8.5995 -8.5995 0 0 1 -3.09691 0
1 195 7.16625 7.16625 -7.16625 0 0 1 -3.79817 0
1 197 10.0328 7.16625 -7.16625 0 0 1 -3.61876 0
1 199 12.8992 7.16625 -7.16625 0 0 1 -3.09633 0
1 201 -4.29975 10.0328 -7.16625 0 0 1 -3.2978 0
1 203 -1.43325 10.0328 -7.16625 0 0 1 -3.60869 0
1 205 1.43325 10.0328 -7.16625 0 0 1 -3.60869 0
1 207 4.29975 10.0328 -7.16625 0 0 1 -3.2978 0
1 209 -10.0328 -10.0328 -4.29975 0 0 1 -3.29736 0
1 210 -7.16625 -10.0328 -4.29975 0 0 1 -3.62257 0
1 211 -4.29975 -10.0328 -4.29975 0 0 1 -3.9045 0
1 212 -2.8665 -11.466 -5.733 0 0 1 -3.10795 0
1 213 -1.43325 -10.0328 -4.29975 0 0 1 -4.04956 0
1 214 0 -11.466 -5.733 0 0 1 -3.26807 0
1 215 1.43325 -10.0328 -4.29975 0 0 1 -4.04956 0
1 216 2.8665 -11.466 -5.733 0 0 1 -3.10795 0
1 217 4.29975 -10.0328 -4.29975 0 0 1 -3.9045 0
1 218 7.16625 -10.0328 -4.29975 0 0 1 -3.62257 0
1 219 10.0328 -10.0328 -4.29975 0 0 1 -3.29736 0
1 220 -15.7657 -7.16625 -4.29975 0 0 1 -3.09633 0
1 221 -12.8992 -7.16625 -4.29975 0 0 1 -3.92744 0
1 222 -11.466 -8.5995 -5.733 0 0 1 -3.29794 0
1 223 -10.0328 -7.16625 -4.29975 0 0 1 -4.20743 0
1 224 -8.5995 -8.5995 -5.733 0 0 1 -3.63486 0
1 225 -7.16625 -7.16625 -4.29975 0 0 1 -4.21757 0
1 226 -5.733 -8.5995 -5.733 0 0 1 -3.92963 0
1 227 -4.29975 -7.16625 -4.29975 0 0 1 -4.22967 0
1 228 -2.8665 -8.5995 -5.733 0 0 1 -4.203 0
1 229 -1.43325 -7.16625 -4.29975 0 0 1 -4.2298 0
1 230 0 -8.5995 -5.733 0 0 1 -4.21629 0
1 231 1.43325 -7.16625 -4.29975 0 0 1 -4.2298 0
1 232 2.8665 -8.5995 -5.733 0 0 1 -4.203 0
1 233 4.29975 -7.16625 -4.29975 0 0 1 -4.22967 0
1 234 5.733 -8.5995 -5.733 0 0 1 -3.92963 0
1 235 7.16625 -7.16625 -4.29975 0 0 1 -4.21757 0
1 236 8.5995 -8.5995 -5.733 0 0 1 -3.63486 0
1 237 10.0328 -7.16625 -4.29975 0 0 1 -4.20743 0
1 238 11.466 -8.5995 -5.733 0 0 1 -3.29794 0
1 239 12.8992 -7.16625 -4.29975 0 0 1 -3.92744 0
1 240 15.7657 -7.16625 -4.29975 0 0 1 -3.09633 0
1 241 -15.7657 -4.29975 -4.29975 0 0 1 -3.91435 0
1 242 -14.3325 -5.733 -5.733 0 0 1 -3.65754 0
1 243 -12.8992 -4.29975 -4.29975 0 0 1 -4.2172 0
1 244 -11.466 -5.733 -5.733 0 0 1 -4.18762 0
1 245 -10.0328 -4.29975 -4.29975 0 0 1 -4.19636 0
1 246 -8.5995 -5.733 -5.733 0 0 1 -4.21791 0
1 247 -7.16625 -4.29975 -4.29975 0 0 1 -4.15428 0
1 248 -5.733 -5.733 -5.733 0 0 1 -4.2291 0
1 249 -4.29975 -4.29975 -4.29975 0 0 1 -4.13677 0
1 250 -2.8665 -5.733 -5.733 0 0 1 -4.21827 0
1 251 -1.43325 -4.29975 -4.29975 0 0 1 -3.90847 0
1 252 0 -5.733 -5.733 0 0 1 -4.10399 0
1 253 1.43325 -4.29975 -4.29975 0 0 1 -3.90847 0
1 254 2.8665 -5.733 -5.733 0 0 1 -4.21827 0
1 255 4.29975 -4.29975 -4.29975 0 0 1 -4.13677 0
1 256 5.733 -5.733 -5.733 0 0 1 -4.2291 0
1 257 7.16625 -4.29975 -4.29975 0 0 1 -4.15428 0
1 258 8.5995 -5.733 -5.733 0 0 1 -4.21791 0
1 259 10.0328 -4.29975 -4.29975 0 0 1 -4.19636 0
1 260 11.466 -5.733 -5.733 0 0 1 -4.18762 0
1 261 12.8992 -4.29975 -4.29975 0 0 1 -4.2172 0
1 262 14.3325 -5.733 -5.733 0 0 1 -3.65754 0
1 263 15.7657 -4.29975 -4.29975 0 0 1 -3.91435 0
1 264 -18.6322 -1.43325 -4.29975 0 0 1 -3.28334 0
1 265 -17.199 -2.8665 -5.733 0 0 1 -3.29723 0
1 266 -15.7657 -1.43325 -4.29975 0 0 1 -3.91445 0
1 267 -14.3325 -2.8665 -5.733 0 0 1 -4.17551 0
1 268 -12.8992 -1.43325 -4.29975 0 0 1 -3.94539 0
1 269 -11.466 -2.8665 -5.733 0 0 1 -4.23639 0
1 270 -10.0328 -1.43325 -4.29975 0 0 1 -4.09127 0
1 271 -8.5995 -2.8665 -5.733 0 0 1 -4.18555 0
2 272 -7.16625 -1.43325 -4.29975 0 0 1 -4.38205 0
1 273 -5.733 -2.8665 -5.733 0 0 1 -4.17718 0
2 274 -4.29975 -1.43325 -4.29975 0 0 1 -4.13127 0
1 275 -2.8665 -2.8665 -5.733 0 0 1 -3.64022 0
1 279 2.8665 -2.8665 -5.733 0 0 1 -3.64022 0
2 280 4.29975 -1.43325 -4.29975 0 0 1 -4.13127 0
1 281 5.733 -2.8665 -5.733 0 0 1 -4.17718 0
2 282 7.16625 -1.43325 -4.29975 0 0 1 -4.38205 0
1 283 8.5995 -2.8665 -5.733 0 0 1 -4.18555 0
1 284 10.0328 -1.43325 -4.29975 0 0 1 -4.09127 0
1 285 11.466 -2.8665 -5.733 0 0 1 -4.23639 0
1 286 12.8992 -1.43325 -4.29975 0 0 1 -3.94539 0
1 287 14.3325 -2.8665 -5.733 0 0 1 -4.17551 0
1 288 15.7657 -1.43325 -4.29975 0 0 1 -3.91445 0
1 289 17.199 -2.8665 -5.733 0 0 1 -3.29723 0
1 290 18.6322 -1.43325 -4.29975 0 0 1 -3.28334 0
1 291 -18.6322 1.43325 -4.29975 0 0 1 -3.28334 0
1 292 -17.199 0 -5.733 0 0 1 -3.60697 0
1 293 -15.7657 1.43325 -4.29975 0 0 1 -3.91178 0
1 318 -17.199 2.8665 -5.733 0 0 1 -3.29723 0
1 294 -14.3325 0 -5.733 0 0 1 -4.09138 0
1 295 -12.8992 1.43325 -4.29975 0 0 1 -3.90034 0
1 320 -14.3325 2.8665 -5.733 0 0 1 -4.17852 0
1 296 -11.466 0 -5.733 0 0 1 -4.17697 0
2 297 -10.0328 1.43325 -4.29975 0 0 1 -4.3575 0
1 322 -11.466 2.8665 -5.733 0 0 1 -4.18766 0
1 298 -8.5995 0 -5.733 0 0 1 -4.19209 0
2 299 -7.16625 1.43325 -4.29975 0 0 1 -4.40658 0
1 324 -8.5995 2.8665 -5.733 0 0 1 -4.19209 0
1 300 -5.733 0 -5.733 0 0 1 -4.05764 0
2 301 -4.29975 1.43325 -4.29975 0 0 1 -4.13455 0
1 326 -5.733 2.8665 -5.733 0 0 1 -4.17268 0
1 328 -2.8665 2.8665 -5.733 0 0 1 -3.63164 0
1 332 2.8665 2.8665 -5.733 0 0 1 -3.63164 0
2 307 4.29975 1.43325 -4.29975 0 0 1 -4.13455 0
1 308 5.733 0 -5.733 0 0 1 -4.05764 0
1 334 5.733 2.8665 -5.733 0 0 1 -4.17268 0
2 309 7.16625 1.43325 -4.29975 0 0 1 -4.40658 0
1 310 8.5995 0 -5.733 0 0 1 -4.19209 0
1 336 8.5995 2.8665 -5.733 0 0 1 -4.19209 0
2 311 10.0328 1.43325 -4.29975 0 0 1 -4.3575 0
1 312 11.466 0 -5.733 0 0 1 -4.17697 0
1 338 11.466 2.8665 -5.733 0 0 1 -4.18766 0
1 313 12.8992 1.43325 -4.29975 0 0 1 -3.90034 0
1 314 14.3325 0 -5.733 0 0 1 -4.09138 0
1 340 14.3325 2.8665 -5.733 0 0 1 -4.17852 0
1 315 15.7657 1.43325 -4.29975 0 0 1 -3.91178 0
1 316 17.199 0 -5.733 0 0 1 -3.60697 0
1 317 18.6322 1.43325 -4.29975 0 0 1 -3.28334 0
1 342 17.199 2.8665 -5.733 0 0 1 -3.29723 0
1 319 -15.7657 4.29975 -4.29975 0 0 1 -3.91956 0
1 321 -12.8992 4.29975 -4.29975 0 0 1 -4.17413 0
1 344 -14.3325 5.733 -5.733 0 0 1 -3.65487 0
1 323 -10.0328 4.29975 -4.29975 0 0 1 -4.10456 0
1 346 -11.466 5.733 -5.733 0 0 1 -4.19537 0
2 325 -7.16625 4.29975 -4.29975 0 0 1 -4.38009 0
1 348 -8.5995 5.733 -5.733 0 0 1 -4.17217 0
2 327 -4.29975 4.29975 -4.29975 0 0 1 -4.38281 0
1 350 -5.733 5.733 -5.733 0 0 1 -4.18801 0
2 329 -1.43325 4.29975 -4.29975 0 0 1 -4.13127 0
1 352 -2.8665 5.733 -5.733 0 0 1 -4.17542 0
2 331 1.43325 4.29975 -4.29975 0 0 1 -4.13127 0
1 354 0 5.733 -5.733 0 0 1 -4.06089 0
1 356 2.8665 5.733 -5.733 0 0 1 -4.17542 0
2 333 4.29975 4.29975 -4.29975 0 0 1 -4.38281 0
1 358 5.733 5.733 -5.733 0 0 1 -4.18801 0
2 335 7.16625 4.29975 -4.29975 0 0 1 -4.38009 0
1 360 8.5995 5.733 -5.733 0 0 1 -4.17217 0
1 337 10.0328 4.29975 -4.29975 0 0 1 -4.10456 0
1 362 11.466 5.733 -5.733 0 0 1 -4.19537 0
1 339 12.8992 4.29975 -4.29975 0 0 1 -4.17413 0
1 364 14.3325 5.733 -5.733 0 0 1 -3.65487 0
1 341 15.7657 4.29975 -4.29975 0 0 1 -3.91956 0
1 343 -15.7657 7.16625 -4.29975 0 0 1 -3.09542 0
1 345 -12.8992 7.16625 -4.29975 0 0 1 -3.92914 0
1 347 -10.0328 7.16625 -4.29975 0 0 1 -4.20975 0
1 366 -11.466 8.5995 -5.733 0 0 1 -3.29703 0
1 349 -7.16625 7.16625 -4.29975 0 0 1 -4.13495 0
1 368 -8.5995 8.5995 -5.733 0 0 1 -3.63804 0
1 351 -4.29975 7.16625 -4.29975 0 0 1 -4.15833 0
1 370 -5.733 8.5995 -5.733 0 0 1 -3.92775 0
1 353 -1.43325 7.16625 -4.29975 0 0 1 -4.1567 0
1 372 -2.8665 8.5995 -5.733 0 0 1 -4.20067 0
1 355 1.43325 7.16625 -4.29975 0 0 1 -4.1567 0
1 374 0 8.5995 -5.733 0 0 1 -4.21396 0
1 376 2.8665 8.5995 -5.733 0 0 1 -4.20067 0
1 357 4.29975 7.16625 -4.29975 0 0 1 -4.15833 0
1 378 5.733 8.5995 -5.733 0 0 1 -3.92775 0
1 359 7.16625 7.16625 -4.29975 0 0 1 -4.13495 0
1 380 8.5995 8.5995 -5.733 0 0 1 -3.63804 0
1 361 10.0328 7.16625 -4.29975 0 0 1 -4.20975 0
1 382 11.466 8.5995 -5.733 0 0 1 -3.29703 0
1 363 12.8992 7.16625 -4.29975 0 0 1 -3.92914 0
1 365 15.7657 7.16625 -4.29975 0 0 1 -3.09542 0
1 367 -10.0328 10.0328 -4.29975 0 0 1 -3.2947 0
1 369 -7.16625 10.0328 -4.29975 0 0 1 -3.62574 0
1 371 -4.29975 10.0328 -4.29975 0 0 1 -3.90437 0
1 373 -1.43325 10.0328 -4.29975 0 0 1 -4.04736 0
1 383 -2.8665 11.466 -5.733 0 0 1 -3.10795 0
1 375 1.43325 10.0328 -4.29975 0 0 1 -4.04736 0
1 384 0 11.466 -5.733 0 0 1 -3.26807 0
1 385 2.8665 11.466 -5.733 0 0 1 -3.10795 0
1 377 4.29975 10.0328 -4.29975 0 0 1 -3.90437 0
1 379 7.16625 10.0328 -4.29975 0 0 1 -3.62574 0
1 381 10.0328 10.0328 -4.29975 0 0 1 -3.2947 0
1 386 -12.8992 -10.0328 -1.43325 0 0 1 -3.10909 0
1 387 -10.0328 -10.0328 -1.43325 0 0 1 -3.76147 0
1 388 -8.5995 -11.466 -2.8665 0 0 1 -3.09519 0
1 389 -7.16625 -10.0328 -1.43325 0 0 1 -4.04723 0
1 390 -5.733 -11.466 -2.8665 0 0 1 -3.2814 0
1 391 -4.29975 -10.0328 -1.43325 0 0 1 -4.04719 0
1 392 -2.8665 -11.466 -2.8665 0 0 1 -3.43643 0
1 393 -1.43325 -10.0328 -1.43325 0 0 1 -4.04776 0
1 394 0 -11.466 -2.8665 0 0 1 -3.44918 0
1 395 1.43325 -10.0328 -1.43325 0 0 1 -4.04776 0
1 396 2.8665 -11.466 -2.8665 0 0 1 -3.43643 0
1 397 4.29975 -10.0328 -1.43325 0 0 1 -4.04719 0
1 398 5.733 -11.466 -2.8665 0 0 1 -3.2814 0
1 399 7.16625 -10.0328 -1.43325 0 0 1 -4.04723 0
1 400 8.5995 -11.466 -2.8665 0 0 1 -3.09519 0
1 401 10.0328 -10.0328 -1.43325 0 0 1 -3.76147 0
1 402 12.8992 -10.0328 -1.43325 0 0 1 -3.10909 0
1 403 -15.7657 -7.16625 -1.43325 0 0 1 -3.62028 0
1 404 -14.3325 -8.5995 -2.8665 0 0 1 -3.2978 0
1 405 -12.8992 -7.16625 -1.43325 0 0 1 -4.20628 0
1 406 -11.466 -8.5995 -2.8665 0 0 1 -3.91502 0
1 407 -10.0328 -7.16625 -1.43325 0 0 1 -4.19145 0
1 408 -8.5995 -8.5995 -2.8665 0 0 1 -4.19844 0
1 409 -7.16625 -7.16625 -1.43325 0 0 1 -4.19207 0
1 410 -5.733 -8.5995 -2.8665 0 0 1 -4.21909 0
1 411 -4.29975 -7.16625 -1.43325 0 0 1 -4.18929 0
1 412 -2.8665 -8.5995 -2.8665 0 0 1 -4.23147 0
1 413 -1.43325 -7.16625 -1.43325 0 0 1 -4.18753 0
1 414 0 -8.5995 -2.8665 0 0 1 -4.2316 0
1 415 1.43325 -7.16625 -1.43325 0 0 1 -4.18753 0
1 416 2.8665 -8.5995 -2.8665 0 0 1 -4.23147 0
1 417 4.29975 -7.16625 -1.43325 0 0 1 -4.18929 0
1 418 5.733 -8.5995 -2.8665 0 0 1 -4.21909 0
1 419 7.16625 -7.16625 -1.43325 0 0 1 -4.19207 0
1 420 8.5995 -8.5995 -2.8665 0 0 1 -4.19844 0
1 421 10.0328 -7.16625 -1.43325 0 0 1 -4.19145 0
1 422 11.466 -8.5995 -2.8665 0 0 1 -3.91502 0
1 423 12.8992 -7.16625 -1.43325 0 0 1 -4.20628 0
1 424 14.3325 -8.5995 -2.8665 0 0 1 -3.2978 0
1 425 15.7657 -7.16625 -1.43325 0 0 1 -3.62028 0
1 426 -18.6322 -4.29975 -1.43325 0 0 1 -3.28334 0
1 427 -17.199 -5.733 -2.8665 0 0 1 -3.29723 0
1 428 -15.7657 -4.29975 -1.43325 0 0 1 -3.91269 0
1 429 -14.3325 -5.733 -2.8665 0 0 1 -4.17376 0
1 430 -12.8992 -4.29975 -1.43325 0 0 1 -3.90164 0
1 431 -11.466 -5.733 -2.8665 0 0 1 -4.23538 0
2 432 -10.0328 -4.29975 -1.43325 0 0 1 -4.39087 0
1 433 -8.5995 -5.733 -2.8665 0 0 1 -4.19105 0
2 434 -7.16625 -4.29975 -1.43325 0 0 1 -4.38561 0
1 435 -5.733 -5.733 -2.8665 0 0 1 -4.15077 0
2 436 -4.29975 -4.29975 -1.43325 0 0 1 -4.37891 0
1 437 -2.8665 -5.733 -2.8665 0 0 1 -4.15833 0
2 438 -1.43325 -4.29975 -1.43325 0 0 1 -4.36833 0
1 439 0 -5.733 -2.8665 0 0 1 -4.14693 0
2 440 1.43325 -4.29975 -1.43325 0 0 1 -4.36833 0
1 441 2.8665 -5.733 -2.8665 0 0 1 -4.15833 0
2 442 4.29975 -4.29975 -1.43325 0 0 1 -4.37891 0
1 443 5.733 -5.733 -2.8665 0 0 1 -4.15077 0
2 444 7.16625 -4.29975 -1.43325 0 0 1 -4.38561 0
1 445 8.5995 -5.733 -2.8665 0 0 1 -4.19105 0
2 446 10.0328 -4.29975 -1.43325 0 0 1 -4.39087 0
1 447 11.466 -5.733 -2.8665 0 0 1 -4.23538 0
1 448 12.8992 -4.29975 -1.43325 0 0 1 -3.90164 0
1 449 14.3325 -5.733 -2.8665 0 0 1 -4.17376 0
1 450 15.7657 -4.29975 -1.43325 0 0 1 -3.91269 0
1 451 17.199 -5.733 -2.8665 0 0 1 -3.29723 0
1 452 18.6322 -4.29975 -1.43325 0 0 1 -3.28334 0
1 453 -18.6322 -1.43325 -1.43325 0 0 1 -3.59468 0
1 454 -17.199 -2.8665 -2.8665 0 0 1 -3.7476 0
1 456 -14.3325 -2.8665 -2.8665 0 0 1 -3.68681 0
1 458 -11.466 -2.8665 -2.8665 0 0 1 -3.948 0
2 459 -10.0328 -1.43325 -1.43325 0 0 1 -4.24222 0
2 460 -8.5995 -2.8665 -2.8665 0 0 1 -4.38137 0
2 461 -7.16625 -1.43325 -1.43325 0 0 1 -4.36261 0
2 462 -5.733 -2.8665 -2.8665 0 0 1 -4.37886 0
2 463 -4.29975 -1.43325 -1.43325 0 0 1 -4.34703 0
2 464 -2.8665 -2.8665 -2.8665 0 0 1 -4.21004 0
2 465 -1.43325 -1.43325 -1.43325 0 0 1 -4.11115 0
2 466 0 -2.8665 -2.8665 0 0 1 -3.86997 0
2 467 1.43325 -1.43325 -1.43325 0 0 1 -4.11115 0
2 468 2.8665 -2.8665 -2.8665 0 0 1 -4.21004 0
2 469 4.29975 -1.43325 -1.43325 0 0 1 -4.34703 0
2 470 5.733 -2.8665 -2.8665 0 0 1 -4.37886 0
2 471 7.16625 -1.43325 -1.43325 0 0 1 -4.36261 0
2 472 8.5995 -2.8665 -2.8665 0 0 1 -4.38137 0
2 473 10.0328 -1.43325 -1.43325 0 0 1 -4.24222 0
1 474 11.466 -2.8665 -2.8665 0 0 1 -3.948 0
1 476 14.3325 -2.8665 -2.8665 0 0 1 -3.68681 0
1 478 17.199 -2.8665 -2.8665 0 0 1 -3.7476 0
1 479 18.6322 -1.43325 -1.43325 0 0 1 -3.59468 0
1 480 -20.0655 0 -2.8665 0 0 1 -2.92803 0
1 481 -18.6322 1.43325 -1.43325 0 0 1 -3.59468 0
1 482 -17.199 0 -2.8665 0 0 1 -3.63358 0
1 510 -17.199 2.8665 -2.8665 0 0 1 -3.74584 0
1 512 -14.3325 2.8665 -2.8665 0 0 1 -3.63466 0
2 486 -11.466 0 -2.8665 0 0 1 -3.99994 0
2 487 -10.0328 1.43325 -1.43325 0 0 1 -4.24743 0
2 514 -11.466 2.8665 -2.8665 0 0 1 -4.222 0
2 488 -8.5995 0 -2.8665 0 0 1 -4.37676 0
2 489 -7.16625 1.43325 -1.43325 0 0 1 -4.35496 0
2 516 -8.5995 2.8665 -2.8665 0 0 1 -4.37557 0
2 490 -5.733 0 -2.8665 0 0 1 -4.34498 0
2 491 -4.29975 1.43325 -1.43325 0 0 1 -4.34476 0
2 518 -5.733 2.8665 -2.8665 0 0 1 -4.36499 0
2 492 -2.8665 0 -2.8665 0 0 1 -3.84894 0
2 493 -1.43325 1.43325 -1.43325 0 0 1 -4.10999 0
2 520 -2.8665 2.8665 -2.8665 0 0 1 -4.19408 0
2 495 1.43325 1.43325 -1.43325 0 0 1 -4.10999 0
2 496 2.8665 0 -2.8665 0 0 1 -3.84894 0
2 522 0 2.8665 -2.8665 0 0 1 -3.84894 0
2 524 2.8665 2.8665 -2.8665 0 0 1 -4.19408 0
2 497 4.29975 1.43325 -1.43325 0 0 1 -4.34476 0
2 498 5.733 0 -2.8665 0 0 1 -4.34498 0
2 526 5.733 2.8665 -2.8665 0 0 1 -4.36499 0
2 499 7.16625 1.43325 -1.43325 0 0 1 -4.35496 0
2 500 8.5995 0 -2.8665 0 0 1 -4.37676 0
2 528 8.5995 2.8665 -2.8665 0 0 1 -4.37557 0
2 501 10.0328 1.43325 -1.43325 0 0 1 -4.24743 0
2 502 11.466 0 -2.8665 0 0 1 -3.99994 0
2 530 11.466 2.8665 -2.8665 0 0 1 -4.222 0
1 532 14.3325 2.8665 -2.8665 0 0 1 -3.63466 0
1 506 17.199 0 -2.8665 0 0 1 -3.63358 0
1 507 18.6322 1.43325 -1.43325 0 0 1 -3.59468 0
1 534 17.199 2.8665 -2.8665 0 0 1 -3.74584 0
1 508 20.0655 0 -2.8665 0 0 1 -2.92803 0
1 509 -18.6322 4.29975 -1.43325 0 0 1 -3.28334 0
1 511 -15.7657 4.29975 -1.43325 0 0 1 -3.87323 0
1 536 -17.199 5.733 -2.8665 0 0 1 -3.29548 0
2 513 -12.8992 4.29975 -1.43325 0 0 1 -4.1448 0
1 538 -14.3325 5.733 -2.8665 0 0 1 -4.18226 0
2 515 -10.0328 4.29975 -1.43325 0 0 1 -4.33841 0
1 540 -11.466 5.733 -2.8665 0 0 1 -4.10045 0
2 517 -7.16625 4.29975 -1.43325 0 0 1 -4.36764 0
2 542 -8.5995 5.733 -2.8665 0 0 1 -4.38932 0
2 519 -4.29975 4.29975 -1.43325 0 0 1 -4.35756 0
2 544 -5.733 5.733 -2.8665 0 0 1 -4.38314 0
2 521 -1.43325 4.29975 -1.43325 0 0 1 -4.34703 0
2 546 -2.8665 5.733 -2.8665 0 0 1 -4.38009 0
2 523 1.43325 4.29975 -1.43325 0 0 1 -4.34703 0
2 548 0 5.733 -2.8665 0 0 1 -4.36086 0
2 550 2.8665 5.733 -2.8665 0 0 1 -4.38009 0
2 525 4.29975 4.29975 -1.43325 0 0 1 -4.35756 0
2 552 5.733 5.733 -2.8665 0 0 1 -4.38314 0
2 527 7.16625 4.29975 -1.43325 0 0 1 -4.36764 0
2 554 8.5995 5.733 -2.8665 0 0 1 -4.38932 0
2 529 10.0328 4.29975 -1.43325 0 0 1 -4.33841 0
1 556 11.466 5.733 -2.8665 0 0 1 -4.10045 0
2 531 12.8992 4.29975 -1.43325 0 0 1 -4.1448 0
1 558 14.3325 5.733 -2.8665 0 0 1 -4.18226 0
1 533 15.7657 4.29975 -1.43325 0 0 1 -3.87323 0
1 535 18.6322 4.29975 -1.43325 0 0 1 -3.28334 0
1 560 17.199 5.733 -2.8665 0 0 1 -3.29548 0
1 537 -15.7657 7.16625 -1.43325 0 0 1 -3.62521 0
1 539 -12.8992 7.16625 -1.43325 0 0 1 -4.16621 0
1 561 -14.3325 8.5995 -2.8665 0 0 1 -3.29514 0
1 541 -10.0328 7.16625 -1.43325 0 0 1 -4.1025 0
1 563 -11.466 8.5995 -2.8665 0 0 1 -3.92276 0
2 543 -7.16625 7.16625 -1.43325 0 0 1 -4.38132 0
1 565 -8.5995 8.5995 -2.8665 0 0 1 -4.15747 0
2 545 -4.29975 7.16625 -1.43325 0 0 1 -4.38639 0
1 567 -5.733 8.5995 -2.8665 0 0 1 -4.1801 0
2 547 -1.43325 7.16625 -1.43325 0 0 1 -4.37891 0
1 569 -2.8665 8.5995 -2.8665 0 0 1 -4.14834 0
2 549 1.43325 7.16625 -1.43325 0 0 1 -4.37891 0
1 571 0 8.5995 -2.8665 0 0 1 -4.15498 0
1 573 2.8665 8.5995 -2.8665 0 0 1 -4.14834 0
2 551 4.29975 7.16625 -1.43325 0 0 1 -4.38639 0
1 575 5.733 8.5995 -2.8665 0 0 1 -4.1801 0
2 553 7.16625 7.16625 -1.43325 0 0 1 -4.38132 0
1 577 8.5995 8.5995 -2.8665 0 0 1 -4.15747 0
1 555 10.0328 7.16625 -1.43325 0 0 1 -4.1025 0
1 579 11.466 8.5995 -2.8665 0 0 1 -3.92276 0
1 557 12.8992 7.16625 -1.43325 0 0 1 -4.16621 0
1 581 14.3325 8.5995 -2.8665 0 0 1 -3.29514 0
1 559 15.7657 7.16625 -1.43325 0 0 1 -3.62521 0
1 562 -12.8992 10.0328 -1.43325 0 0 1 -3.10643 0
1 564 -10.0328 10.0328 -1.43325 0 0 1 -3.77002 0
1 566 -7.16625 10.0328 -1.43325 0 0 1 -4.00846 0
1 582 -8.5995 11.466 -2.8665 0 0 1 -3.09343 0
1 568 -4.29975 10.0328 -1.43325 0 0 1 -4.01201 0
1 583 -5.733 11.466 -2.8665 0 0 1 -3.27698 0
1 570 -1.43325 10.0328 -1.43325 0 0 1 -4.00773 0
1 584 -2.8665 11.466 -2.8665 0 0 1 -3.44055 0
1 572 1.43325 10.0328 -1.43325 0 0 1 -4.00773 0
1 585 0 11.466 -2.8665 0 0 1 -3.45239 0
1 586 2.8665 11.466 -2.8665 0 0 1 -3.44055 0
1 574 4.29975 10.0328 -1.43325 0 0 1 -4.01201 0
1 587 5.733 11.466 -2.8665 0 0 1 -3.27698 0
1 576 7.16625 10.0328 -1.43325 0 0 1 -4.00846 0
1 588 8.5995 11.466 -2.8665 0 0 1 -3.09343 0
1 578 10.0328 10.0328 -1.43325 0 0 1 -3.77002 0
1 580 12.8992 10.0328 -1.43325 0 0 1 -3.10643 0
1 589 -12.8992 -10.0328 1.43325 0 0 1 -3.10909 0
1 590 -10.0328 -10.0328 1.43325 0 0 1 -3.75972 0
1 591 -8.5995 -11.466 0 0 0 1 -3.26921 0
1 592 -7.16625 -10.0328 1.43325 0 0 1 -4.04371 0
1 797 -8.5995 -11.466 2.8665 0 0 1 -3.09519 0
1 593 -5.733 -11.466 0 0 0 1 -3.44918 0
1 594 -4.29975 -10.0328 1.43325 0 0 1 -4.04367 0
1 799 -5.733 -11.466 2.8665 0 0 1 -3.2814 0
1 595 -2.8665 -11.466 0 0 0 1 -3.44918 0
1 596 -1.43325 -10.0328 1.43325 0 0 1 -4.04425 0
1 801 -2.8665 -11.466 2.8665 0 0 1 -3.43643 0
1 597 0 -11.466 0 0 0 1 -3.44918 0
1 598 1.43325 -10.0328 1.43325 0 0 1 -4.04425 0
1 599 2.8665 -11.466 0 0 0 1 -3.44918 0
1 803 0 -11.466 2.8665 0 0 1 -3.44918 0
1 805 2.8665 -11.466 2.8665 0 0 1 -3.43643 0
1 600 4.29975 -10.0328 1.43325 0 0 1 -4.04367 0
1 601 5.733 -11.466 0 0 0 1 -3.44918 0
1 807 5.733 -11.466 2.8665 0 0 1 -3.2814 0
1 602 7.16625 -10.0328 1.43325 0 0 1 -4.04371 0
1 603 8.5995 -11.466 0 0 0 1 -3.26921 0
1 809 8.5995 -11.466 2.8665 0 0 1 -3.09519 0
1 604 10.0328 -10.0328 1.43325 0 0 1 -3.75972 0
1 605 12.8992 -10.0328 1.43325 0 0 1 -3.10909 0
1 606 -15.7657 -7.16625 1.43325 0 0 1 -3.61852 0
1 607 -14.3325 -8.5995 0 0 0 1 -3.60812 0
1 608 -12.8992 -7.16625 1.43325 0 0 1 -4.2001 0
1 812 -14.3325 -8.5995 2.8665 0 0 1 -3.2978 0
1 609 -11.466 -8.5995 0 0 0 1 -4.05754 0
1 610 -10.0328 -7.16625 1.43325 0 0 1 -4.19255 0
1 814 -11.466 -8.5995 2.8665 0 0 1 -3.92023 0
1 611 -8.5995 -8.5995 0 0 0 1 -4.22252 0
1 612 -7.16625 -7.16625 1.43325 0 0 1 -4.19294 0
1 816 -8.5995 -8.5995 2.8665 0 0 1 -4.15815 0
1 613 -5.733 -8.5995 0 0 0 1 -4.19129 0
1 614 -4.29975 -7.16625 1.43325 0 0 1 -4.18655 0
1 818 -5.733 -8.5995 2.8665 0 0 1 -4.18436 0
1 615 -2.8665 -8.5995 0 0 0 1 -4.19778 0
1 616 -1.43325 -7.16625 1.43325 0 0 1 -4.18303 0
1 820 -2.8665 -8.5995 2.8665 0 0 1 -4.20322 0
1 617 0 -8.5995 0 0 0 1 -4.19778 0
1 618 1.43325 -7.16625 1.43325 0 0 1 -4.18303 0
1 619 2.8665 -8.5995 0 0 0 1 -4.19778 0
1 822 0 -8.5995 2.8665 0 0 1 -4.20244 0
1 824 2.8665 -8.5995 2.8665 0 0 1 -4.20322 0
1 620 4.29975 -7.16625 1.43325 0 0 1 -4.18655 0
1 621 5.733 -8.5995 0 0 0 1 -4.19129 0
1 826 5.733 -8.5995 2.8665 0 0 1 -4.18436 0
1 622 7.16625 -7.16625 1.43325 0 0 1 -4.19294 0
1 623 8.5995 -8.5995 0 0 0 1 -4.22252 0
1 828 8.5995 -8.5995 2.8665 0 0 1 -4.15815 0
1 624 10.0328 -7.16625 1.43325 0 0 1 -4.19255 0
1 625 11.466 -8.5995 0 0 0 1 -4.05754 0
1 830 11.466 -8.5995 2.8665 0 0 1 -3.92023 0
1 626 12.8992 -7.16625 1.43325 0 0 1 -4.2001 0
1 627 14.3325 -8.5995 0 0 0 1 -3.60812 0
1 832 14.3325 -8.5995 2.8665 0 0 1 -3.2978 0
1 628 15.7657 -7.16625 1.43325 0 0 1 -3.61852 0
1 629 -18.6322 -4.29975 1.43325 0 0 1 -3.28158 0
1 630 -17.199 -5.733 0 0 0 1 -3.60606 0
1 631 -15.7657 -4.29975 1.43325 0 0 1 -3.90786 0
1 834 -17.199 -5.733 2.8665 0 0 1 -3.30573 0
1 632 -14.3325 -5.733 0 0 0 1 -4.09626 0
1 633 -12.8992 -4.29975 1.43325 0 0 1 -3.90688 0
1 836 -14.3325 -5.733 2.8665 0 0 1 -4.13255 0
1 634 -11.466 -5.733 0 0 0 1 -4.17803 0
2 635 -10.0328 -4.29975 1.43325 0 0 1 -4.37467 0
1 838 -11.466 -5.733 2.8665 0 0 1 -4.15287 0
1 636 -8.5995 -5.733 0 0 0 1 -4.1075 0
2 637 -7.16625 -4.29975 1.43325 0 0 1 -4.36937 0
2 840 -8.5995 -5.733 2.8665 0 0 1 -4.3755 0
2 638 -5.733 -5.733 0 0 0 1 -4.3821 0
2 639 -4.29975 -4.29975 1.43325 0 0 1 -4.36302 0
2 842 -5.733 -5.733 2.8665 0 0 1 -4.39375 0
2 640 -2.8665 -5.733 0 0 0 1 -4.39252 0
2 641 -1.43325 -4.29975 1.43325 0 0 1 -4.3524 0
2 844 -2.8665 -5.733 2.8665 0 0 1 -4.39898 0
2 642 0 -5.733 0 0 0 1 -4.39252 0
2 643 1.43325 -4.29975 1.43325 0 0 1 -4.3524 0
2 644 2.8665 -5.733 0 0 0 1 -4.39252 0
2 846 0 -5.733 2.8665 0 0 1 -4.37975 0