ITEM: TIMESTEP
0
ITEM: NUMBER OF ATOMS
1291
ITEM: BOX BOUNDS pp pp pp
-2.5000000000000000e+01 2.5000000000000000e+01
-2.5000000000000000e+01 2.5000000000000000e+01
-2.5000000000000000e+01 2.5000000000000000e+01
ITEM: ATOMS type id x y z c_outsp[1] c_outsp[2] c_outsp[3] c_peAtom c_keAtom
1 1 -4.29975 -4.29975 -10.0328 0 0 1 -3.01354 0
2 2 -1.43325 -4.29975 -10.0328 0 0 1 -3.27714 0
1 3 1.43325 -4.29975 -10.0328 0 0 1 -3.15888 0
1 4 4.29975 -4.29975 -10.0328 0 0 1 -3.1095 0
1 5 -7.16625 -1.43325 -10.0328 0 0 1 -3.11756 0
1 6 -4.29975 -1.43325 -10.0328 0 0 1 -3.55953 0
1 7 -1.43325 -1.43325 -10.0328 0 0 1 -3.36695 0
2 8 1.43325 -1.43325 -10.0328 0 0 1 -3.55536 0
1 9 4.29975 -1.43325 -10.0328 0 0 1 -3.47011 0
2 10 7.16625 -1.43325 -10.0328 0 0 1 -3.14545 0
1 11 -10.0328 1.43325 -10.0328 0 0 1 -2.89023 0
1 12 -7.16625 1.43325 -10.0328 0 0 1 -3.39947 0
2 13 -4.29975 1.43325 -10.0328 0 0 1 -3.94897 0
1 14 -2.8665 0 -11.466 0 0 1 -2.98465 0
1 15 -1.43325 1.43325 -10.0328 0 0 1 -3.67301 0
2 24 -2.8665 2.8665 -11.466 0 0 1 -3.08065 0
2 16 0 0 -11.466 0 0 1 -3.1051 0
2 17 1.43325 1.43325 -10.0328 0 0 1 -3.9889 0
1 18 2.8665 0 -11.466 0 0 1 -2.9681 0
1 26 0 2.8665 -11.466 0 0 1 -3.15635 0
1 28 2.8665 2.8665 -11.466 0 0 1 -3.09036 0
2 19 4.29975 1.43325 -10.0328 0 0 1 -3.94847 0
1 20 7.16625 1.43325 -10.0328 0 0 1 -3.30163 0
1 21 10.0328 1.43325 -10.0328 0 0 1 -2.94958 0
1 22 -7.16625 4.29975 -10.0328 0 0 1 -3.03056 0
2 23 -4.29975 4.29975 -10.0328 0 0 1 -3.59349 0
1 25 -1.43325 4.29975 -10.0328 0 0 1 -3.7113 0
1 27 1.43325 4.29975 -10.0328 0 0 1 -3.70258 0
1 29 4.29975 4.29975 -10.0328 0 0 1 -3.42355 0
1 30 7.16625 4.29975 -10.0328 0 0 1 -3.12133 0
1 31 -1.43325 7.16625 -10.0328 0 0 1 -3.11286 0
1 32 1.43325 7.16625 -10.0328 0 0 1 -3.10616 0
1 33 -7.16625 -7.16625 -7.16625 0 0 1 -3.04354 0
1 34 -4.29975 -7.16625 -7.16625 0 0 1 -3.56517 0
1 35 -1.43325 -7.16625 -7.16625 0 0 1 -3.62249 0
1 36 1.43325 -7.16625 -7.16625 0 0 1 -3.60829 0
1 37 4.29975 -7.16625 -7.16625 0 0 1 -3.5566 0
2 38 7.16625 -7.16625 -7.16625 0 0 1 -3.05516 0
1 39 -12.8992 -4.29975 -7.16625 0 0 1 -3.05306 0
2 40 -10.0328 -4.29975 -7.16625 0 0 1 -3.81543 0
1 41 -7.16625 -4.29975 -7.16625 0 0 1 -3.83762 0
2 42 -5.733 -5.733 -8.5995 0 0 1 -3.41462 0
2 43 -4.29975 -4.29975 -7.16625 0 0 1 -4.34402 0
1 44 -2.8665 -5.733 -8.5995 0 0 1 -3.46916 0
1 45 -1.43325 -4.29975 -7.16625 0 0 1 -3.83264 0
2 46 0 -5.733 -8.5995 0 0 1 -3.77512 0
1 47 1.43325 -4.29975 -7.16625 0 0 1 -3.93196 0
1 48 2.8665 -5.733 -8.5995 0 0 1 -3.52464 0
1 49 4.29975 -4.29975 -7.16625 0 0 1 -4.17927 0
2 50 5.733 -5.733 -8.5995 0 0 1 -3.42818 0
1 51 7.16625 -4.29975 -7.16625 0 0 1 -3.87999 0
1 52 10.0328 -4.29975 -7.16625 0 0 1 -3.52185 0
2 53 12.8992 -4.29975 -7.16625 0 0 1 -3.0819 0
1 54 -12.8992 -1.43325 -7.16625 0 0 1 -3.6344 0
1 55 -11.466 -2.8665 -8.5995 0 0 1 -3.09258 0
1 56 -10.0328 -1.43325 -7.16625 0 0 1 -3.98334 0
1 57 -8.5995 -2.8665 -8.5995 0 0 1 -3.42608 0
1 58 -7.16625 -1.43325 -7.16625 0 0 1 -4.21607 0
1 59 -5.733 -2.8665 -8.5995 0 0 1 -3.85645 0
1 60 -4.29975 -1.43325 -7.16625 0 0 1 -3.90137 0
1 61 -2.8665 -2.8665 -8.5995 0 0 1 -3.89877 0
1 63 0 -2.8665 -8.5995 0 0 1 -3.44995 0
1 65 2.8665 -2.8665 -8.5995 0 0 1 -3.84662 0
1 66 4.29975 -1.43325 -7.16625 0 0 1 -3.91664 0
1 67 5.733 -2.8665 -8.5995 0 0 1 -3.81882 0
1 68 7.16625 -1.43325 -7.16625 0 0 1 -4.11025 0
2 69 8.5995 -2.8665 -8.5995 0 0 1 -3.58068 0
1 70 10.0328 -1.43325 -7.16625 0 0 1 -4.09145 0
1 71 11.466 -2.8665 -8.5995 0 0 1 -3.01017 0
1 72 12.8992 -1.43325 -7.16625 0 0 1 -3.56527 0
1 73 -15.7657 1.43325 -7.16625 0 0 1 -2.94947 0
1 74 -12.8992 1.43325 -7.16625 0 0 1 -3.72395 0
1 75 -11.466 0 -8.5995 0 0 1 -3.39755 0
2 76 -10.0328 1.43325 -7.16625 0 0 1 -4.34583 0
1 95 -11.466 2.8665 -8.5995 0 0 1 -3.29529 0
2 77 -8.5995 0 -8.5995 0 0 1 -4.11752 0
1 78 -7.16625 1.43325 -7.16625 0 0 1 -4.14407 0
1 97 -8.5995 2.8665 -8.5995 0 0 1 -3.84907 0
1 79 -5.733 0 -8.5995 0 0 1 -3.99489 0
1 80 -4.29975 1.43325 -7.16625 0 0 1 -3.90993 0
1 99 -5.733 2.8665 -8.5995 0 0 1 -4.0638 0
1 81 -2.8665 0 -8.5995 0 0 1 -3.64949 0
1 101 -2.8665 2.8665 -8.5995 0 0 1 -3.97999 0
2 85 2.8665 0 -8.5995 0 0 1 -3.7963 0
1 103 0 2.8665 -8.5995 0 0 1 -3.67579 0
1 105 2.8665 2.8665 -8.5995 0 0 1 -3.98056 0
2 86 4.29975 1.43325 -7.16625 0 0 1 -4.17067 0
1 87 5.733 0 -8.5995 0 0 1 -3.99634 0
1 107 5.733 2.8665 -8.5995 0 0 1 -4.01448 0
2 88 7.16625 1.43325 -7.16625 0 0 1 -4.41699 0
1 89 8.5995 0 -8.5995 0 0 1 -3.8679 0
1 109 8.5995 2.8665 -8.5995 0 0 1 -3.85906 0
1 90 10.0328 1.43325 -7.16625 0 0 1 -4.14188 0
1 91 11.466 0 -8.5995 0 0 1 -3.41715 0
2 111 11.466 2.8665 -8.5995 0 0 1 -3.43779 0
1 92 12.8992 1.43325 -7.16625 0 0 1 -3.75157 0
1 93 15.7657 1.43325 -7.16625 0 0 1 -2.94051 0
1 94 -12.8992 4.29975 -7.16625 0 0 1 -3.27829 0
1 96 -10.0328 4.29975 -7.16625 0 0 1 -3.84887 0
2 98 -7.16625 4.29975 -7.16625 0 0 1 -4.36969 0
1 114 -8.5995 5.733 -8.5995 0 0 1 -3.30804 0
1 100 -4.29975 4.29975 -7.16625 0 0 1 -4.11703 0
1 116 -5.733 5.733 -8.5995 0 0 1 -3.70478 0
1 102 -1.43325 4.29975 -7.16625 0 0 1 -3.95057 0
1 118 -2.8665 5.733 -8.5995 0 0 1 -3.94114 0
1 104 1.43325 4.29975 -7.16625 0 0 1 -3.90331 0
1 120 0 5.733 -8.5995 0 0 1 -3.99874 0
1 122 2.8665 5.733 -8.5995 0 0 1 -3.89158 0
1 106 4.29975 4.29975 -7.16625 0 0 1 -4.1782 0
2 124 5.733 5.733 -8.5995 0 0 1 -3.94159 0
1 108 7.16625 4.29975 -7.16625 0 0 1 -4.07393 0
1 126 8.5995 5.733 -8.5995 0 0 1 -3.23168 0
1 110 10.0328 4.29975 -7.16625 0 0 1 -3.89449 0
1 112 12.8992 4.29975 -7.16625 0 0 1 -3.30875 0
1 113 -10.0328 7.16625 -7.16625 0 0 1 -3.31281 0
1 115 -7.16625 7.16625 -7.16625 0 0 1 -3.7403 0
1 117 -4.29975 7.16625 -7.16625 0 0 1 -4.02724 0
2 128 -5.733 8.5995 -8.5995 0 0 1 -2.76627 0
1 119 -1.43325 7.16625 -7.16625 0 0 1 -4.20315 0
1 130 -2.8665 8.5995 -8.5995 0 0 1 -3.39594 0
1 121 1.43325 7.16625 -7.16625 0 0 1 -4.20145 0
1 132 0 8.5995 -8.5995 0 0 1 -3.61396 0
1 134 2.8665 8.5995 -8.5995 0 0 1 -3.45189 0
1 123 4.29975 7.16625 -7.16625 0 0 1 -4.00541 0
1 136 5.733 8.5995 -8.5995 0 0 1 -2.83875 0
2 125 7.16625 7.16625 -7.16625 0 0 1 -3.98499 0
1 127 10.0328 7.16625 -7.16625 0 0 1 -3.25167 0
2 129 -4.29975 10.0328 -7.16625 0 0 1 -3.39377 0
1 131 -1.43325 10.0328 -7.16625 0 0 1 -3.56094 0
1 133 1.43325 10.0328 -7.16625 0 0 1 -3.60505 0
1 135 4.29975 10.0328 -7.16625 0 0 1 -3.28829 0
1 137 -4.29975 -10.0328 -4.29975 0 0 1 -3.10547 0
1 138 -1.43325 -10.0328 -4.29975 0 0 1 -3.27463 0
1 139 1.43325 -10.0328 -4.29975 0 0 1 -3.2648 0
1 140 4.29975 -10.0328 -4.29975 0 0 1 -3.08244 0
1 141 -12.8992 -7.16625 -4.29975 0 0 1 -3.09297 0
1 142 -10.0328 -7.16625 -4.29975 0 0 1 -3.57873 0
2 143 -7.16625 -7.16625 -4.29975 0 0 1 -4.11853 0
2 144 -5.733 -8.5995 -5.733 0 0 1 -3.41214 0
1 145 -4.29975 -7.16625 -4.29975 0 0 1 -4.16183 0
1 146 -2.8665 -8.5995 -5.733 0 0 1 -3.51688 0
1 147 -1.43325 -7.16625 -4.29975 0 0 1 -4.17174 0
1 148 0 -8.5995 -5.733 0 0 1 -3.62268 0
1 149 1.43325 -7.16625 -4.29975 0 0 1 -4.20902 0
1 150 2.8665 -8.5995 -5.733 0 0 1 -3.57699 0
1 151 4.29975 -7.16625 -4.29975 0 0 1 -4.19095 0
2 152 5.733 -8.5995 -5.733 0 0 1 -3.44294 0
1 153 7.16625 -7.16625 -4.29975 0 0 1 -3.86641 0
1 154 10.0328 -7.16625 -4.29975 0 0 1 -3.56446 0
1 155 12.8992 -7.16625 -4.29975 0 0 1 -3.0994 0
1 156 -15.7657 -4.29975 -4.29975 0 0 1 -3.08111 0
1 157 -12.8992 -4.29975 -4.29975 0 0 1 -4.05137 0
1 158 -11.466 -5.733 -5.733 0 0 1 -3.42963 0
1 159 -10.0328 -4.29975 -4.29975 0 0 1 -4.18208 0
2 160 -8.5995 -5.733 -5.733 0 0 1 -4.01227 0
1 161 -7.16625 -4.29975 -4.29975 0 0 1 -4.14716 0
1 162 -5.733 -5.733 -5.733 0 0 1 -4.00803 0
1 163 -4.29975 -4.29975 -4.29975 0 0 1 -4.19253 0
2 164 -2.8665 -5.733 -5.733 0 0 1 -4.3553 0
1 165 -1.43325 -4.29975 -4.29975 0 0 1 -3.90986 0
1 166 0 -5.733 -5.733 0 0 1 -3.994 0
1 167 1.43325 -4.29975 -4.29975 0 0 1 -3.94172 0
1 168 2.8665 -5.733 -5.733 0 0 1 -4.18361 0
1 169 4.29975 -4.29975 -4.29975 0 0 1 -4.20813 0
2 170 5.733 -5.733 -5.733 0 0 1 -4.37194 0
1 171 7.16625 -4.29975 -4.29975 0 0 1 -4.17294 0
1 172 8.5995 -5.733 -5.733 0 0 1 -3.69164 0
2 173 10.0328 -4.29975 -4.29975 0 0 1 -4.36933 0
2 174 11.466 -5.733 -5.733 0 0 1 -3.67811 0
1 175 12.8992 -4.29975 -4.29975 0 0 1 -3.94782 0
1 176 15.7657 -4.29975 -4.29975 0 0 1 -3.07897 0
1 177 -15.7657 -1.43325 -4.29975 0 0 1 -3.47966 0
1 178 -14.3325 -2.8665 -5.733 0 0 1 -3.47576 0
1 179 -12.8992 -1.43325 -4.29975 0 0 1 -3.9272 0
1 180 -11.466 -2.8665 -5.733 0 0 1 -4.18993 0
1 181 -10.0328 -1.43325 -4.29975 0 0 1 -4.22614 0
1 182 -8.5995 -2.8665 -5.733 0 0 1 -4.17007 0
1 183 -7.16625 -1.43325 -4.29975 0 0 1 -4.23541 0
1 184 -5.733 -2.8665 -5.733 0 0 1 -4.22698 0
1 185 -4.29975 -1.43325 -4.29975 0 0 1 -3.90407 0
1 186 -2.8665 -2.8665 -5.733 0 0 1 -3.62177 0
1 190 2.8665 -2.8665 -5.733 0 0 1 -3.6829 0
1 191 4.29975 -1.43325 -4.29975 0 0 1 -3.89761 0
1 192 5.733 -2.8665 -5.733 0 0 1 -4.18847 0
1 193 7.16625 -1.43325 -4.29975 0 0 1 -4.23746 0
1 194 8.5995 -2.8665 -5.733 0 0 1 -4.13799 0
1 195 10.0328 -1.43325 -4.29975 0 0 1 -4.16083 0
2 196 11.466 -2.8665 -5.733 0 0 1 -4.34527 0
1 197 12.8992 -1.43325 -4.29975 0 0 1 -3.9334 0
1 198 14.3325 -2.8665 -5.733 0 0 1 -3.39424 0
1 199 15.7657 -1.43325 -4.29975 0 0 1 -3.46909 0
2 200 -18.6322 1.43325 -4.29975 0 0 1 -2.93262 0
1 201 -17.199 0 -5.733 0 0 1 -3.03101 0
1 202 -15.7657 1.43325 -4.29975 0 0 1 -3.83418 0
1 227 -17.199 2.8665 -5.733 0 0 1 -3.09265 0
1 203 -14.3325 0 -5.733 0 0 1 -3.78231 0
1 204 -12.8992 1.43325 -4.29975 0 0 1 -3.90505 0
1 229 -14.3325 2.8665 -5.733 0 0 1 -3.89342 0
1 205 -11.466 0 -5.733 0 0 1 -4.20378 0
1 206 -10.0328 1.43325 -4.29975 0 0 1 -4.17542 0
1 231 -11.466 2.8665 -5.733 0 0 1 -4.19508 0
1 207 -8.5995 0 -5.733 0 0 1 -4.18162 0
1 208 -7.16625 1.43325 -4.29975 0 0 1 -4.24626 0
1 233 -8.5995 2.8665 -5.733 0 0 1 -4.23592 0
1 209 -5.733 0 -5.733 0 0 1 -4.10717 0
1 210 -4.29975 1.43325 -4.29975 0 0 1 -3.94571 0
1 235 -5.733 2.8665 -5.733 0 0 1 -4.16482 0
1 237 -2.8665 2.8665 -5.733 0 0 1 -3.68302 0
1 241 2.8665 2.8665 -5.733 0 0 1 -3.69323 0
1 216 4.29975 1.43325 -4.29975 0 0 1 -3.91641 0
1 217 5.733 0 -5.733 0 0 1 -4.05865 0
1 243 5.733 2.8665 -5.733 0 0 1 -4.1346 0
1 218 7.16625 1.43325 -4.29975 0 0 1 -4.14508 0
1 219 8.5995 0 -5.733 0 0 1 -4.2374 0
1 245 8.5995 2.8665 -5.733 0 0 1 -4.20109 0
1 220 10.0328 1.43325 -4.29975 0 0 1 -4.17571 0
1 221 11.466 0 -5.733 0 0 1 -4.16444 0
1 247 11.466 2.8665 -5.733 0 0 1 -4.11708 0
1 222 12.8992 1.43325 -4.29975 0 0 1 -3.94233 0
1 223 14.3325 0 -5.733 0 0 1 -3.79113 0
1 249 14.3325 2.8665 -5.733 0 0 1 -3.91393 0
1 224 15.7657 1.43325 -4.29975 0 0 1 -3.86956 0
1 225 17.199 0 -5.733 0 0 1 -3.08068 0
1 226 18.6322 1.43325 -4.29975 0 0 1 -2.9369 0
1 251 17.199 2.8665 -5.733 0 0 1 -3.09304 0
1 228 -15.7657 4.29975 -4.29975 0 0 1 -3.73824 0
2 230 -12.8992 4.29975 -4.29975 0 0 1 -4.35683 0
1 253 -14.3325 5.733 -5.733 0 0 1 -3.30123 0
1 232 -10.0328 4.29975 -4.29975 0 0 1 -4.2019 0
1 255 -11.466 5.733 -5.733 0 0 1 -3.91798 0
1 234 -7.16625 4.29975 -4.29975 0 0 1 -4.14068 0
1 257 -8.5995 5.733 -5.733 0 0 1 -4.19204 0
1 236 -4.29975 4.29975 -4.29975 0 0 1 -4.23199 0
1 259 -5.733 5.733 -5.733 0 0 1 -4.23584 0
1 238 -1.43325 4.29975 -4.29975 0 0 1 -3.85738 0
1 261 -2.8665 5.733 -5.733 0 0 1 -4.16437 0
2 240 1.43325 4.29975 -4.29975 0 0 1 -4.14092 0
2 263 0 5.733 -5.733 0 0 1 -4.31578 0
1 265 2.8665 5.733 -5.733 0 0 1 -4.0842 0
1 242 4.29975 4.29975 -4.29975 0 0 1 -4.12791 0
2 267 5.733 5.733 -5.733 0 0 1 -4.40797 0
2 244 7.16625 4.29975 -4.29975 0 0 1 -4.38653 0
2 269 8.5995 5.733 -5.733 0 0 1 -4.35893 0
2 246 10.0328 4.29975 -4.29975 0 0 1 -4.41008 0
1 271 11.466 5.733 -5.733 0 0 1 -3.89258 0
1 248 12.8992 4.29975 -4.29975 0 0 1 -4.14068 0
1 273 14.3325 5.733 -5.733 0 0 1 -3.30711 0
1 250 15.7657 4.29975 -4.29975 0 0 1 -3.78367 0
1 252 -15.7657 7.16625 -4.29975 0 0 1 -3.08683 0
1 254 -12.8992 7.16625 -4.29975 0 0 1 -3.72009 0
1 256 -10.0328 7.16625 -4.29975 0 0 1 -4.15935 0
1 275 -11.466 8.5995 -5.733 0 0 1 -3.07915 0
1 258 -7.16625 7.16625 -4.29975 0 0 1 -4.2344 0
1 277 -8.5995 8.5995 -5.733 0 0 1 -3.63693 0
1 260 -4.29975 7.16625 -4.29975 0 0 1 -4.23345 0
1 279 -5.733 8.5995 -5.733 0 0 1 -3.87433 0
1 262 -1.43325 7.16625 -4.29975 0 0 1 -4.23916 0
1 281 -2.8665 8.5995 -5.733 0 0 1 -4.20826 0
1 264 1.43325 7.16625 -4.29975 0 0 1 -4.17999 0
1 283 0 8.5995 -5.733 0 0 1 -4.17333 0
1 285 2.8665 8.5995 -5.733 0 0 1 -4.21396 0
1 266 4.29975 7.16625 -4.29975 0 0 1 -4.24015 0
1 287 5.733 8.5995 -5.733 0 0 1 -3.89701 0
1 268 7.16625 7.16625 -4.29975 0 0 1 -4.12842 0
1 289 8.5995 8.5995 -5.733 0 0 1 -3.58516 0
1 270 10.0328 7.16625 -4.29975 0 0 1 -4.15668 0
1 291 11.466 8.5995 -5.733 0 0 1 -3.09926 0
1 272 12.8992 7.16625 -4.29975 0 0 1 -3.80213 0
1 274 15.7657 7.16625 -4.29975 0 0 1 -3.06724 0
2 276 -10.0328 10.0328 -4.29975 0 0 1 -3.42896 0
1 278 -7.16625 10.0328 -4.29975 0 0 1 -3.55008 0
1 280 -4.29975 10.0328 -4.29975 0 0 1 -3.83571 0
1 282 -1.43325 10.0328 -4.29975 0 0 1 -4.02918 0
1 292 -2.8665 11.466 -5.733 0 0 1 -3.10254 0
1 284 1.43325 10.0328 -4.29975 0 0 1 -4.06038 0
1 293 0 11.466 -5.733 0 0 1 -3.22276 0
1 294 2.8665 11.466 -5.733 0 0 1 -3.12427 0
1 286 4.29975 10.0328 -4.29975 0 0 1 -3.87482 0
1 288 7.16625 10.0328 -4.29975 0 0 1 -3.58804 0
1 290 10.0328 10.0328 -4.29975 0 0 1 -3.26347 0
1 295 -7.16625 -10.0328 -1.43325 0 0 1 -3.13061 0
1 296 -4.29975 -10.0328 -1.43325 0 0 1 -3.61101 0
1 297 -1.43325 -10.0328 -1.43325 0 0 1 -3.72989 0
1 298 1.43325 -10.0328 -1.43325 0 0 1 -3.7763 0
1 299 4.29975 -10.0328 -1.43325 0 0 1 -3.58629 0
1 300 7.16625 -10.0328 -1.43325 0 0 1 -3.08578 0
1 301 -12.8992 -7.16625 -1.43325 0 0 1 -3.62507 0
1 302 -11.466 -8.5995 -2.8665 0 0 1 -3.09297 0
1 303 -10.0328 -7.16625 -1.43325 0 0 1 -4.0799 0
1 304 -8.5995 -8.5995 -2.8665 0 0 1 -3.46968 0
1 305 -7.16625 -7.16625 -1.43325 0 0 1 -4.11892 0
1 306 -5.733 -8.5995 -2.8665 0 0 1 -3.85193 0
1 307 -4.29975 -7.16625 -1.43325 0 0 1 -4.20089 0
1 308 -2.8665 -8.5995 -2.8665 0 0 1 -4.0691 0
2 309 -1.43325 -7.16625 -1.43325 0 0 1 -4.42412 0
1 310 0 -8.5995 -2.8665 0 0 1 -4.05641 0
1 311 1.43325 -7.16625 -1.43325 0 0 1 -4.18583 0
1 312 2.8665 -8.5995 -2.8665 0 0 1 -4.04305 0
1 313 4.29975 -7.16625 -1.43325 0 0 1 -4.21881 0
2 314 5.733 -8.5995 -2.8665 0 0 1 -4.1234 0
1 315 7.16625 -7.16625 -1.43325 0 0 1 -4.18249 0
1 316 8.5995 -8.5995 -2.8665 0 0 1 -3.35518 0
1 317 10.0328 -7.16625 -1.43325 0 0 1 -4.06789 0
1 318 11.466 -8.5995 -2.8665 0 0 1 -3.12184 0
1 319 12.8992 -7.16625 -1.43325 0 0 1 -3.61214 0
1 320 -15.7657 -4.29975 -1.43325 0 0 1 -3.48394 0
1 321 -14.3325 -5.733 -2.8665 0 0 1 -3.47666 0
1 322 -12.8992 -4.29975 -1.43325 0 0 1 -3.92545 0
1 323 -11.466 -5.733 -2.8665 0 0 1 -4.18921 0
1 324 -10.0328 -4.29975 -1.43325 0 0 1 -4.18184 0
1 325 -8.5995 -5.733 -2.8665 0 0 1 -4.17076 0
2 326 -7.16625 -4.29975 -1.43325 0 0 1 -4.39963 0
1 327 -5.733 -5.733 -2.8665 0 0 1 -4.23628 0
1 328 -4.29975 -4.29975 -1.43325 0 0 1 -4.11771 0
1 329 -2.8665 -5.733 -2.8665 0 0 1 -4.17512 0
2 330 -1.43325 -4.29975 -1.43325 0 0 1 -4.39889 0
1 331 0 -5.733 -2.8665 0 0 1 -4.22628 0
1 332 1.43325 -4.29975 -1.43325 0 0 1 -4.19045 0
1 333 2.8665 -5.733 -2.8665 0 0 1 -4.14956 0
1 334 4.29975 -4.29975 -1.43325 0 0 1 -4.12983 0
2 335 5.733 -5.733 -2.8665 0 0 1 -4.42724 0
1 336 7.16625 -4.29975 -1.43325 0 0 1 -4.23438 0
2 337 8.5995 -5.733 -2.8665 0 0 1 -4.374 0
1 338 10.0328 -4.29975 -1.43325 0 0 1 -4.16441 0
1 339 11.466 -5.733 -2.8665 0 0 1 -4.10988 0
1 340 12.8992 -4.29975 -1.43325 0 0 1 -3.93557 0
1 341 14.3325 -5.733 -2.8665 0 0 1 -3.43793 0
1 342 15.7657 -4.29975 -1.43325 0 0 1 -3.43755 0
1 343 -18.6322 -1.43325 -1.43325 0 0 1 -2.92499 0
1 344 -17.199 -2.8665 -2.8665 0 0 1 -3.03972 0
1 346 -14.3325 -2.8665 -2.8665 0 0 1 -3.64202 0
1 348 -11.466 -2.8665 -2.8665 0 0 1 -4.07737 0
1 349 -10.0328 -1.43325 -1.43325 0 0 1 -4.03539 0
1 350 -8.5995 -2.8665 -2.8665 0 0 1 -4.18379 0
1 351 -7.16625 -1.43325 -1.43325 0 0 1 -4.16114 0
1 352 -5.733 -2.8665 -2.8665 0 0 1 -4.22227 0
2 353 -4.29975 -1.43325 -1.43325 0 0 1 -4.3925 0
1 354 -2.8665 -2.8665 -2.8665 0 0 1 -4.05686 0
1 355 -1.43325 -1.43325 -1.43325 0 0 1 -3.86557 0
1 356 0 -2.8665 -2.8665 0 0 1 -3.66409 0
1 357 1.43325 -1.43325 -1.43325 0 0 1 -3.91193 0
1 358 2.8665 -2.8665 -2.8665 0 0 1 -4.07668 0
2 359 4.29975 -1.43325 -1.43325 0 0 1 -4.3832 0
1 360 5.733 -2.8665 -2.8665 0 0 1 -4.15126 0
1 361 7.16625 -1.43325 -1.43325 0 0 1 -4.18079 0
1 362 8.5995 -2.8665 -2.8665 0 0 1 -4.20205 0
1 363 10.0328 -1.43325 -1.43325 0 0 1 -4.07112 0
1 364 11.466 -2.8665 -2.8665 0 0 1 -3.99904 0
2 366 14.3325 -2.8665 -2.8665 0 0 1 -3.8484 0
1 368 17.199 -2.8665 -2.8665 0 0 1 -3.03797 0
1 369 18.6322 -1.43325 -1.43325 0 0 1 -2.9449 0
1 370 -18.6322 1.43325 -1.43325 0 0 1 -3.35841 0
2 371 -17.199 0 -2.8665 0 0 1 -3.43482 0
1 398 -17.199 2.8665 -2.8665 0 0 1 -3.64848 0
1 400 -14.3325 2.8665 -2.8665 0 0 1 -3.69695 0
1 375 -11.466 0 -2.8665 0 0 1 -3.81671 0
1 376 -10.0328 1.43325 -1.43325 0 0 1 -4.08171 0
1 402 -11.466 2.8665 -2.8665 0 0 1 -4.02324 0
1 377 -8.5995 0 -2.8665 0 0 1 -4.23489 0
1 378 -7.16625 1.43325 -1.43325 0 0 1 -4.18515 0
1 404 -8.5995 2.8665 -2.8665 0 0 1 -4.19383 0
1 379 -5.733 0 -2.8665 0 0 1 -4.16657 0
1 380 -4.29975 1.43325 -1.43325 0 0 1 -4.19695 0
2 406 -5.733 2.8665 -2.8665 0 0 1 -4.40751 0
1 381 -2.8665 0 -2.8665 0 0 1 -3.67354 0
1 382 -1.43325 1.43325 -1.43325 0 0 1 -3.91704 0
1 408 -2.8665 2.8665 -2.8665 0 0 1 -4.01474 0
1 384 1.43325 1.43325 -1.43325 0 0 1 -3.87506 0
1 385 2.8665 0 -2.8665 0 0 1 -3.62945 0
1 410 0 2.8665 -2.8665 0 0 1 -3.67268 0
1 412 2.8665 2.8665 -2.8665 0 0 1 -3.96727 0
1 386 4.29975 1.43325 -1.43325 0 0 1 -4.18409 0
2 387 5.733 0 -2.8665 0 0 1 -4.3984 0
2 414 5.733 2.8665 -2.8665 0 0 1 -4.40183 0
1 388 7.16625 1.43325 -1.43325 0 0 1 -4.18958 0
1 389 8.5995 0 -2.8665 0 0 1 -4.19632 0
1 416 8.5995 2.8665 -2.8665 0 0 1 -4.10532 0
1 390 10.0328 1.43325 -1.43325 0 0 1 -4.07765 0
1 391 11.466 0 -2.8665 0 0 1 -3.78324 0
2 418 11.466 2.8665 -2.8665 0 0 1 -4.23403 0
1 420 14.3325 2.8665 -2.8665 0 0 1 -3.63544 0
1 395 17.199 0 -2.8665 0 0 1 -3.32286 0
1 396 18.6322 1.43325 -1.43325 0 0 1 -3.33072 0
1 422 17.199 2.8665 -2.8665 0 0 1 -3.68454 0
1 397 -18.6322 4.29975 -1.43325 0 0 1 -3.27023 0
1 399 -15.7657 4.29975 -1.43325 0 0 1 -3.91874 0
1 424 -17.199 5.733 -2.8665 0 0 1 -3.3057 0
1 401 -12.8992 4.29975 -1.43325 0 0 1 -3.85138 0
1 426 -14.3325 5.733 -2.8665 0 0 1 -4.11924 0
1 403 -10.0328 4.29975 -1.43325 0 0 1 -4.1746 0
1 428 -11.466 5.733 -2.8665 0 0 1 -4.23591 0
2 405 -7.16625 4.29975 -1.43325 0 0 1 -4.38275 0
1 430 -8.5995 5.733 -2.8665 0 0 1 -4.17994 0
1 407 -4.29975 4.29975 -1.43325 0 0 1 -4.09178 0
1 432 -5.733 5.733 -2.8665 0 0 1 -4.18913 0
2 409 -1.43325 4.29975 -1.43325 0 0 1 -4.38092 0
1 434 -2.8665 5.733 -2.8665 0 0 1 -4.18576 0
2 411 1.43325 4.29975 -1.43325 0 0 1 -4.40014 0
1 436 0 5.733 -2.8665 0 0 1 -4.13071 0
2 438 2.8665 5.733 -2.8665 0 0 1 -4.37409 0
1 413 4.29975 4.29975 -1.43325 0 0 1 -4.19176 0
1 440 5.733 5.733 -2.8665 0 0 1 -4.09154 0
1 415 7.16625 4.29975 -1.43325 0 0 1 -4.18275 0
1 442 8.5995 5.733 -2.8665 0 0 1 -4.20943 0
1 417 10.0328 4.29975 -1.43325 0 0 1 -4.18114 0
1 444 11.466 5.733 -2.8665 0 0 1 -4.17789 0
1 419 12.8992 4.29975 -1.43325 0 0 1 -3.90516 0
1 446 14.3325 5.733 -2.8665 0 0 1 -4.17861 0
1 421 15.7657 4.29975 -1.43325 0 0 1 -3.86931 0
2 423 18.6322 4.29975 -1.43325 0 0 1 -3.39667 0
1 448 17.199 5.733 -2.8665 0 0 1 -3.29661 0
1 425 -15.7657 7.16625 -1.43325 0 0 1 -3.53652 0
2 427 -12.8992 7.16625 -1.43325 0 0 1 -4.37366 0
1 449 -14.3325 8.5995 -2.8665 0 0 1 -3.27991 0
1 429 -10.0328 7.16625 -1.43325 0 0 1 -4.174 0
1 451 -11.466 8.5995 -2.8665 0 0 1 -3.90834 0
1 431 -7.16625 7.16625 -1.43325 0 0 1 -4.09362 0
1 453 -8.5995 8.5995 -2.8665 0 0 1 -4.15284 0
1 433 -4.29975 7.16625 -1.43325 0 0 1 -4.22457 0
1 455 -5.733 8.5995 -2.8665 0 0 1 -4.20905 0
1 435 -1.43325 7.16625 -1.43325 0 0 1 -4.09913 0
1 457 -2.8665 8.5995 -2.8665 0 0 1 -4.23867 0
1 437 1.43325 7.16625 -1.43325 0 0 1 -4.17288 0
1 459 0 8.5995 -2.8665 0 0 1 -4.1506 0
1 461 2.8665 8.5995 -2.8665 0 0 1 -4.14391 0
1 439 4.29975 7.16625 -1.43325 0 0 1 -4.14243 0
1 463 5.733 8.5995 -2.8665 0 0 1 -4.18895 0
1 441 7.16625 7.16625 -1.43325 0 0 1 -4.20453 0
1 465 8.5995 8.5995 -2.8665 0 0 1 -4.15691 0
1 443 10.0328 7.16625 -1.43325 0 0 1 -4.15747 0
1 467 11.466 8.5995 -2.8665 0 0 1 -3.9297 0
1 445 12.8992 7.16625 -1.43325 0 0 1 -4.12907 0
1 469 14.3325 8.5995 -2.8665 0 0 1 -3.24198 0
1 447 15.7657 7.16625 -1.43325 0 0 1 -3.63234 0
2 450 -12.8992 10.0328 -1.43325 0 0 1 -3.48415 0
2 452 -10.0328 10.0328 -1.43325 0 0 1 -4.1249 0
2 454 -7.16625 10.0328 -1.43325 0 0 1 -4.26761 0
2 470 -8.5995 11.466 -2.8665 0 0 1 -3.09193 0
2 456 -4.29975 10.0328 -1.43325 0 0 1 -4.39366 0
1 471 -5.733 11.466 -2.8665 0 0 1 -3.3663 0
2 458 -1.43325 10.0328 -1.43325 0 0 1 -4.36688 0
1 473 -2.8665 11.466 -2.8665 0 0 1 -3.66675 0
1 460 1.43325 10.0328 -1.43325 0 0 1 -4.08919 0
2 475 0 11.466 -2.8665 0 0 1 -3.94535 0
1 477 2.8665 11.466 -2.8665 0 0 1 -3.6791 0
2 462 4.29975 10.0328 -1.43325 0 0 1 -4.3643 0
2 479 5.733 11.466 -2.8665 0 0 1 -3.55379 0
2 464 7.16625 10.0328 -1.43325 0 0 1 -4.2866 0
1 480 8.5995 11.466 -2.8665 0 0 1 -3.02741 0
2 466 10.0328 10.0328 -1.43325 0 0 1 -4.09559 0
2 468 12.8992 10.0328 -1.43325 0 0 1 -3.42382 0
1 472 -4.29975 12.8992 -1.43325 0 0 1 -3.00347 0
2 474 -1.43325 12.8992 -1.43325 0 0 1 -3.27975 0
1 476 1.43325 12.8992 -1.43325 0 0 1 -3.15353 0
2 478 4.29975 12.8992 -1.43325 0 0 1 -3.12241 0
1 481 -10.0328 -10.0328 1.43325 0 0 1 -3.0975 0
1 482 -7.16625 -10.0328 1.43325 0 0 1 -3.60346 0
1 483 -4.29975 -10.0328 1.43325 0 0 1 -3.91067 0
1 688 -5.733 -11.466 2.8665 0 0 1 -2.93959 0
1 484 -2.8665 -11.466 0 0 0 1 -3.11728 0
1 485 -1.43325 -10.0328 1.43325 0 0 1 -4.05162 0
1 690 -2.8665 -11.466 2.8665 0 0 1 -3.22802 0
1 486 0 -11.466 0 0 0 1 -3.26655 0
1 487 1.43325 -10.0328 1.43325 0 0 1 -4.04769 0
1 488 2.8665 -11.466 0 0 0 1 -3.12744 0
1 692 0 -11.466 2.8665 0 0 1 -3.43047 0
1 694 2.8665 -11.466 2.8665 0 0 1 -3.22535 0
1 489 4.29975 -10.0328 1.43325 0 0 1 -3.90139 0
2 696 5.733 -11.466 2.8665 0 0 1 -2.95378 0
1 490 7.16625 -10.0328 1.43325 0 0 1 -3.58538 0
1 491 10.0328 -10.0328 1.43325 0 0 1 -3.1052 0
2 492 -15.7657 -7.16625 1.43325 0 0 1 -3.15528 0
1 493 -12.8992 -7.16625 1.43325 0 0 1 -3.72017 0
1 494 -11.466 -8.5995 0 0 0 1 -3.41311 0
1 495 -10.0328 -7.16625 1.43325 0 0 1 -4.20178 0
2 701 -11.466 -8.5995 2.8665 0 0 1 -3.82418 0
1 496 -8.5995 -8.5995 0 0 0 1 -3.91756 0
1 497 -7.16625 -7.16625 1.43325 0 0 1 -4.18704 0
1 703 -8.5995 -8.5995 2.8665 0 0 1 -4.02165 0
1 498 -5.733 -8.5995 0 0 0 1 -4.07532 0
1 499 -4.29975 -7.16625 1.43325 0 0 1 -4.24058 0
1 705 -5.733 -8.5995 2.8665 0 0 1 -4.14507 0
1 500 -2.8665 -8.5995 0 0 0 1 -4.15687 0
1 501 -1.43325 -7.16625 1.43325 0 0 1 -4.19793 0
2 707 -2.8665 -8.5995 2.8665 0 0 1 -4.39723 0
1 502 0 -8.5995 0 0 0 1 -4.22418 0
1 503 1.43325 -7.16625 1.43325 0 0 1 -4.19435 0
1 504 2.8665 -8.5995 0 0 0 1 -4.11754 0
1 709 0 -8.5995 2.8665 0 0 1 -4.1814 0
1 711 2.8665 -8.5995 2.8665 0 0 1 -4.23071 0
1 505 4.29975 -7.16625 1.43325 0 0 1 -4.18751 0
2 506 5.733 -8.5995 0 0 0 1 -4.29967 0
1 713 5.733 -8.5995 2.8665 0 0 1 -4.10293 0
1 507 7.16625 -7.16625 1.43325 0 0 1 -4.22507 0
2 508 8.5995 -8.5995 0 0 0 1 -4.12644 0
1 715 8.5995 -8.5995 2.8665 0 0 1 -4.03538 0
1 509 10.0328 -7.16625 1.43325 0 0 1 -4.1513 0
1 510 11.466 -8.5995 0 0 0 1 -3.40405 0
1 717 11.466 -8.5995 2.8665 0 0 1 -3.60702 0
1 511 12.8992 -7.16625 1.43325 0 0 1 -3.80195 0
1 512 15.7657 -7.16625 1.43325 0 0 1 -3.03454 0
1 513 -18.6322 -4.29975 1.43325 0 0 1 -3.10371 0
1 514 -17.199 -5.733 0 0 0 1 -3.07289 0
1 515 -15.7657 -4.29975 1.43325 0 0 1 -3.8521 0
1 721 -17.199 -5.733 2.8665 0 0 1 -3.4523 0
1 516 -14.3325 -5.733 0 0 0 1 -3.78292 0
1 517 -12.8992 -4.29975 1.43325 0 0 1 -3.95466 0
1 723 -14.3325 -5.733 2.8665 0 0 1 -3.95747 0
1 518 -11.466 -5.733 0 0 0 1 -4.16626 0
1 519 -10.0328 -4.29975 1.43325 0 0 1 -4.13097 0
2 725 -11.466 -5.733 2.8665 0 0 1 -4.40487 0
1 520 -8.5995 -5.733 0 0 0 1 -4.18533 0
2 521 -7.16625 -4.29975 1.43325 0 0 1 -4.39885 0
1 727 -8.5995 -5.733 2.8665 0 0 1 -4.19617 0
1 522 -5.733 -5.733 0 0 0 1 -4.22388 0
1 523 -4.29975 -4.29975 1.43325 0 0 1 -4.16118 0
1 729 -5.733 -5.733 2.8665 0 0 1 -4.23201 0
1 524 -2.8665 -5.733 0 0 0 1 -4.22655 0
1 525 -1.43325 -4.29975 1.43325 0 0 1 -4.1971 0
1 731 -2.8665 -5.733 2.8665 0 0 1 -4.18063 0
1 526 0 -5.733 0 0 0 1 -4.17934 0
1 527 1.43325 -4.29975 1.43325 0 0 1 -4.20262 0
2 528 2.8665 -5.733 0 0 0 1 -4.39414 0
1 733 0 -5.733 2.8665 0 0 1 -4.23594 0
1 735 2.8665 -5.733 2.8665 0 0 1 -4.18653 0
2 529 4.29975 -4.29975 1.43325 0 0 1 -4.39782 0
1 530 5.733 -5.733 0 0 0 1 -4.12256 0
1 737 5.733 -5.733 2.8665 0 0 1 -4.19899 0
1 531 7.16625 -4.29975 1.43325 0 0 1 -4.17903 0
1 532 8.5995 -5.733 0 0 0 1 -4.15145 0
1 739 8.5995 -5.733 2.8665 0 0 1 -4.19174 0
1 533 10.0328 -4.29975 1.43325 0 0 1 -4.22353 0
1 534 11.466 -5.733 0 0 0 1 -4.20866 0
1 741 11.466 -5.733 2.8665 0 0 1 -4.21257 0
1 535 12.8992 -4.29975 1.43325 0 0 1 -3.85526 0
1 536 14.3325 -5.733 0 0 0 1 -3.77856 0
1 743 14.3325 -5.733 2.8665 0 0 1 -4.02227 0
2 537 15.7657 -4.29975 1.43325 0 0 1 -4.11161 0
1 538 17.199 -5.733 0 0 0 1 -3.06015 0
2 539 18.6322 -4.29975 1.43325 0 0 1 -3.15161 0
1 745 17.199 -5.733 2.8665 0 0 1 -3.43098 0
1 540 -18.6322 -1.43325 1.43325 0 0 1 -3.43746 0
1 541 -17.199 -2.8665 0 0 0 1 -3.31672 0
1 748 -17.199 -2.8665 2.8665 0 0 1 -3.87768 0
1 750 -14.3325 -2.8665 2.8665 0 0 1 -3.64057 0
1 545 -11.466 -2.8665 0 0 0 1 -3.77022 0
2 546 -10.0328 -1.43325 1.43325 0 0 1 -4.2717 0
1 752 -11.466 -2.8665 2.8665 0 0 1 -4.03779 0
2 547 -8.5995 -2.8665 0 0 0 1 -4.38716 0
1 548 -7.16625 -1.43325 1.43325 0 0 1 -4.11308 0
1 754 -8.5995 -2.8665 2.8665 0 0 1 -4.18448 0
1 549 -5.733 -2.8665 0 0 0 1 -4.17436 0
2 550 -4.29975 -1.43325 1.43325 0 0 1 -4.41448 0
1 756 -5.733 -2.8665 2.8665 0 0 1 -4.22831 0
1 551 -2.8665 -2.8665 0 0 0 1 -4.2181 0
1 552 -1.43325 -1.43325 1.43325 0 0 1 -4.20835 0
1 758 -2.8665 -2.8665 2.8665 0 0 1 -4.22462 0
1 553 0 -2.8665 0 0 0 1 -4.21202 0
1 554 1.43325 -1.43325 1.43325 0 0 1 -4.19652 0
1 555 2.8665 -2.8665 0 0 0 1 -4.18253 0
1 760 0 -2.8665 2.8665 0 0 1 -4.22125 0
1 762 2.8665 -2.8665 2.8665 0 0 1 -4.18329 0
1 556 4.29975 -1.43325 1.43325 0 0 1 -4.15762 0
1 557 5.733 -2.8665 0 0 0 1 -4.19808 0
2 764 5.733 -2.8665 2.8665 0 0 1 -4.38935 0
1 558 7.16625 -1.43325 1.43325 0 0 1 -4.19245 0
1 559 8.5995 -2.8665 0 0 0 1 -4.24224 0
1 766 8.5995 -2.8665 2.8665 0 0 1 -4.1415 0
1 560 10.0328 -1.43325 1.43325 0 0 1 -4.0768 0
1 561 11.466 -2.8665 0 0 0 1 -3.8158 0
1 768 11.466 -2.8665 2.8665 0 0 1 -4.074 0
1 770 14.3325 -2.8665 2.8665 0 0 1 -3.66208 0
1 565 17.199 -2.8665 0 0 0 1 -3.30129 0
1 566 18.6322 -1.43325 1.43325 0 0 1 -3.35544 0
1 772 17.199 -2.8665 2.8665 0 0 1 -3.86102 0
1 567 -20.0655 0 0 0 0 1 -2.90377 0
2 596 -20.0655 2.8665 0 0 0 1 -3.13646 0
1 774 -20.0655 0 2.8665 0 0 1 -3.23923 0
1 803 -20.0655 2.8665 2.8665 0 0 1 -3.07217 0
1 568 -18.6322 1.43325 1.43325 0 0 1 -3.70355 0
2 598 -17.199 2.8665 0 0 0 1 -3.87874 0
1 776 -17.199 0 2.8665 0 0 1 -3.66392 0
1 805 -17.199 2.8665 2.8665 0 0 1 -3.90106 0
1 807 -14.3325 2.8665 2.8665 0 0 1 -3.65826 0
1 573 -11.466 0 0 0 0 1 -3.41185 0
1 574 -10.0328 1.43325 1.43325 0 0 1 -4.02387 0
2 602 -11.466 2.8665 0 0 0 1 -4.01046 0
1 780 -11.466 0 2.8665 0 0 1 -3.81073 0
1 809 -11.466 2.8665 2.8665 0 0 1 -3.94947 0
1 575 -8.5995 0 0 0 0 1 -4.18116 0
1 576 -7.16625 1.43325 1.43325 0 0 1 -4.25018 0
1 604 -8.5995 2.8665 0 0 0 1 -4.14463 0
1 782 -8.5995 0 2.8665 0 0 1 -4.22945 0
1 811 -8.5995 2.8665 2.8665 0 0 1 -4.16145 0
1 577 -5.733 0 0 0 0 1 -4.23135 0
1 578 -4.29975 1.43325 1.43325 0 0 1 -4.14935 0
1 606 -5.733 2.8665 0 0 0 1 -4.19195 0
1 784 -5.733 0 2.8665 0 0 1 -4.21485 0
1 813 -5.733 2.8665 2.8665 0 0 1 -4.18766 0
1 579 -2.8665 0 0 0 0 1 -4.20521 0
1 580 -1.43325 1.43325 1.43325 0 0 1 -4.20153 0
1 608 -2.8665 2.8665 0 0 0 1 -4.1764 0
1 786 -2.8665 0 2.8665 0 0 1 -4.22694 0
1 815 -2.8665 2.8665 2.8665 0 0 1 -4.17367 0
1 581 0 0 0 0 0 1 -4.089 0
2 582 1.43325 1.43325 1.43325 0 0 1 -4.40723 0
1 583 2.8665 0 0 0 0 1 -4.21263 0
1 610 0 2.8665 0 0 0 1 -4.20796 0
1 612 2.8665 2.8665 0 0 0 1 -4.23277 0
1 788 0 0 2.8665 0 0 1 -4.21336 0
1 790 2.8665 0 2.8665 0 0 1 -4.22342 0
1 817 0 2.8665 2.8665 0 0 1 -4.1045 0
1 819 2.8665 2.8665 2.8665 0 0 1 -4.16585 0
1 584 4.29975 1.43325 1.43325 0 0 1 -4.14766 0
1 585 5.733 0 0 0 0 1 -4.20643 0
1 614 5.733 2.8665 0 0 0 1 -4.13568 0
1 792 5.733 0 2.8665 0 0 1 -4.12921 0
1 821 5.733 2.8665 2.8665 0 0 1 -4.25658 0
2 586 7.16625 1.43325 1.43325 0 0 1 -4.39808 0
1 587 8.5995 0 0 0 0 1 -4.14309 0
2 616 8.5995 2.8665 0 0 0 1 -4.38179 0
2 794 8.5995 0 2.8665 0 0 1 -4.38368 0
1 823 8.5995 2.8665 2.8665 0 0 1 -4.04121 0
1 588 10.0328 1.43325 1.43325 0 0 1 -4.02964 0
1 589 11.466 0 0 0 0 1 -3.47542 0
1 618 11.466 2.8665 0 0 0 1 -3.71581 0
1 796 11.466 0 2.8665 0 0 1 -3.76146 0
1 825 11.466 2.8665 2.8665 0 0 1 -4.09661 0
1 827 14.3325 2.8665 2.8665 0 0 1 -3.58415 0
2 594 18.6322 1.43325 1.43325 0 0 1 -3.97621 0
2 622 17.199 2.8665 0 0 0 1 -3.83975 0
1 800 17.199 0 2.8665 0 0 1 -3.66541 0
1 829 17.199 2.8665 2.8665 0 0 1 -3.94231 0
1 595 20.0655 0 0 0 0 1 -2.92341 0
1 624 20.0655 2.8665 0 0 0 1 -3.01895 0
1 802 20.0655 0 2.8665 0 0 1 -3.18384 0
1 831 20.0655 2.8665 2.8665 0 0 1 -3.10942 0
1 597 -18.6322 4.29975 1.43325 0 0 1 -3.55204 0
1 599 -15.7657 4.29975 1.43325 0 0 1 -3.84503 0
1 625 -17.199 5.733 0 0 0 1 -3.48069 0
2 832 -17.199 5.733 2.8665 0 0 1 -3.77173 0
1 601 -12.8992 4.29975 1.43325 0 0 1 -3.86621 0
2 627 -14.3325 5.733 0 0 0 1 -4.27701 0
2 834 -14.3325 5.733 2.8665 0 0 1 -4.36541 0
1 603 -10.0328 4.29975 1.43325 0 0 1 -4.1806 0
1 629 -11.466 5.733 0 0 0 1 -4.032 0
2 836 -11.466 5.733 2.8665 0 0 1 -4.37863 0
1 605 -7.16625 4.29975 1.43325 0 0 1 -4.05403 0
2 631 -8.5995 5.733 0 0 0 1 -4.38825 0
2 838 -8.5995 5.733 2.8665 0 0 1 -4.41729 0
2 607 -4.29975 4.29975 1.43325 0 0 1 -4.37351 0
1 633 -5.733 5.733 0 0 0 1 -4.09639 0
2 840 -5.733 5.733 2.8665 0 0 1 -4.35568 0
1 609 -1.43325 4.29975 1.43325 0 0 1 -4.11052 0
2 635 -2.8665 5.733 0 0 0 1 -4.37626 0