ITEM: TIMESTEP
0
ITEM: NUMBER OF ATOMS
1259
ITEM: BOX BOUNDS pp pp pp
-2.5000000000000000e+01 2.5000000000000000e+01
-2.5000000000000000e+01 2.5000000000000000e+01
-2.5000000000000000e+01 2.5000000000000000e+01
ITEM: ATOMS type id x y z c_outsp[1] c_outsp[2] c_outsp[3] c_peAtom c_keAtom
1 1 -4.29975 -4.29975 -10.0328 0 0 1 -3.10839 0
1 2 -1.43325 -4.29975 -10.0328 0 0 1 -3.25518 0
1 3 1.43325 -4.29975 -10.0328 0 0 1 -3.25518 0
1 4 4.29975 -4.29975 -10.0328 0 0 1 -3.10839 0
1 5 -7.16625 -1.43325 -10.0328 0 0 1 -3.12243 0
1 6 -4.29975 -1.43325 -10.0328 0 0 1 -3.59296 0
1 7 -1.43325 -1.43325 -10.0328 0 0 1 -3.44729 0
1 8 1.43325 -1.43325 -10.0328 0 0 1 -3.44729 0
1 9 4.29975 -1.43325 -10.0328 0 0 1 -3.59296 0
1 10 7.16625 -1.43325 -10.0328 0 0 1 -3.12243 0
1 11 -10.0328 1.43325 -10.0328 0 0 1 -2.94252 0
1 12 -7.16625 1.43325 -10.0328 0 0 1 -3.42483 0
1 13 -4.29975 1.43325 -10.0328 0 0 1 -3.75962 0
1 14 -2.8665 0 -11.466 0 0 1 -3.083 0
1 15 -1.43325 1.43325 -10.0328 0 0 1 -3.75459 0
1 24 -2.8665 2.8665 -11.466 0 0 1 -3.09563 0
1 16 0 0 -11.466 0 0 1 -3.10737 0
1 17 1.43325 1.43325 -10.0328 0 0 1 -3.75459 0
1 18 2.8665 0 -11.466 0 0 1 -3.083 0
1 26 0 2.8665 -11.466 0 0 1 -3.25531 0
1 28 2.8665 2.8665 -11.466 0 0 1 -3.09563 0
1 19 4.29975 1.43325 -10.0328 0 0 1 -3.75962 0
1 20 7.16625 1.43325 -10.0328 0 0 1 -3.42483 0
1 21 10.0328 1.43325 -10.0328 0 0 1 -2.94252 0
1 22 -7.16625 4.29975 -10.0328 0 0 1 -3.10909 0
1 23 -4.29975 4.29975 -10.0328 0 0 1 -3.46118 0
1 25 -1.43325 4.29975 -10.0328 0 0 1 -3.74747 0
1 27 1.43325 4.29975 -10.0328 0 0 1 -3.74747 0
1 29 4.29975 4.29975 -10.0328 0 0 1 -3.46118 0
1 30 7.16625 4.29975 -10.0328 0 0 1 -3.10909 0
1 31 -1.43325 7.16625 -10.0328 0 0 1 -3.10967 0
1 32 1.43325 7.16625 -10.0328 0 0 1 -3.10967 0
1 33 -7.16625 -7.16625 -7.16625 0 0 1 -3.09691 0
1 34 -4.29975 -7.16625 -7.16625 0 0 1 -3.62085 0
1 35 -1.43325 -7.16625 -7.16625 0 0 1 -3.62169 0
1 36 1.43325 -7.16625 -7.16625 0 0 1 -3.62169 0
1 37 4.29975 -7.16625 -7.16625 0 0 1 -3.62085 0
1 38 7.16625 -7.16625 -7.16625 0 0 1 -3.09691 0
1 39 -12.8992 -4.29975 -7.16625 0 0 1 -3.09563 0
1 40 -10.0328 -4.29975 -7.16625 0 0 1 -3.62156 0
1 41 -7.16625 -4.29975 -7.16625 0 0 1 -3.9295 0
1 42 -5.733 -5.733 -8.5995 0 0 1 -3.2978 0
1 43 -4.29975 -4.29975 -7.16625 0 0 1 -4.18901 0
1 44 -2.8665 -5.733 -8.5995 0 0 1 -3.60799 0
1 45 -1.43325 -4.29975 -7.16625 0 0 1 -3.92893 0
1 46 0 -5.733 -8.5995 0 0 1 -3.59539 0
1 47 1.43325 -4.29975 -7.16625 0 0 1 -3.92893 0
1 48 2.8665 -5.733 -8.5995 0 0 1 -3.60799 0
1 49 4.29975 -4.29975 -7.16625 0 0 1 -4.18901 0
1 50 5.733 -5.733 -8.5995 0 0 1 -3.2978 0
1 51 7.16625 -4.29975 -7.16625 0 0 1 -3.9295 0
1 52 10.0328 -4.29975 -7.16625 0 0 1 -3.62156 0
1 53 12.8992 -4.29975 -7.16625 0 0 1 -3.09563 0
1 54 -12.8992 -1.43325 -7.16625 0 0 1 -3.62098 0
1 55 -11.466 -2.8665 -8.5995 0 0 1 -3.09563 0
1 56 -10.0328 -1.43325 -7.16625 0 0 1 -4.07455 0
1 57 -8.5995 -2.8665 -8.5995 0 0 1 -3.46189 0
1 58 -7.16625 -1.43325 -7.16625 0 0 1 -4.20371 0
1 59 -5.733 -2.8665 -8.5995 0 0 1 -3.90335 0
1 60 -4.29975 -1.43325 -7.16625 0 0 1 -3.9435 0
1 61 -2.8665 -2.8665 -8.5995 0 0 1 -3.89005 0
1 63 0 -2.8665 -8.5995 0 0 1 -3.49288 0
1 65 2.8665 -2.8665 -8.5995 0 0 1 -3.89005 0
1 66 4.29975 -1.43325 -7.16625 0 0 1 -3.9435 0
1 67 5.733 -2.8665 -8.5995 0 0 1 -3.90335 0
1 68 7.16625 -1.43325 -7.16625 0 0 1 -4.20371 0
1 69 8.5995 -2.8665 -8.5995 0 0 1 -3.46189 0
1 70 10.0328 -1.43325 -7.16625 0 0 1 -4.07455 0
1 71 11.466 -2.8665 -8.5995 0 0 1 -3.09563 0
1 72 12.8992 -1.43325 -7.16625 0 0 1 -3.62098 0
1 73 -15.7657 1.43325 -7.16625 0 0 1 -2.94226 0
1 74 -12.8992 1.43325 -7.16625 0 0 1 -3.7609 0
1 75 -11.466 0 -8.5995 0 0 1 -3.448 0
1 76 -10.0328 1.43325 -7.16625 0 0 1 -4.19029 0
1 95 -11.466 2.8665 -8.5995 0 0 1 -3.29794 0
1 77 -8.5995 0 -8.5995 0 0 1 -3.91607 0
1 78 -7.16625 1.43325 -7.16625 0 0 1 -4.22958 0
1 97 -8.5995 2.8665 -8.5995 0 0 1 -3.90335 0
1 79 -5.733 0 -8.5995 0 0 1 -4.04912 0
1 80 -4.29975 1.43325 -7.16625 0 0 1 -3.94421 0
1 99 -5.733 2.8665 -8.5995 0 0 1 -4.0617 0
1 81 -2.8665 0 -8.5995 0 0 1 -3.64848 0
1 101 -2.8665 2.8665 -8.5995 0 0 1 -4.03545 0
1 85 2.8665 0 -8.5995 0 0 1 -3.64848 0
1 103 0 2.8665 -8.5995 0 0 1 -3.66134 0
1 105 2.8665 2.8665 -8.5995 0 0 1 -4.03545 0
1 86 4.29975 1.43325 -7.16625 0 0 1 -3.94421 0
1 87 5.733 0 -8.5995 0 0 1 -4.04912 0
1 107 5.733 2.8665 -8.5995 0 0 1 -4.0617 0
1 88 7.16625 1.43325 -7.16625 0 0 1 -4.22958 0
1 89 8.5995 0 -8.5995 0 0 1 -3.91607 0
1 109 8.5995 2.8665 -8.5995 0 0 1 -3.90335 0
1 90 10.0328 1.43325 -7.16625 0 0 1 -4.19029 0
1 91 11.466 0 -8.5995 0 0 1 -3.448 0
1 111 11.466 2.8665 -8.5995 0 0 1 -3.29794 0
1 92 12.8992 1.43325 -7.16625 0 0 1 -3.7609 0
1 93 15.7657 1.43325 -7.16625 0 0 1 -2.94226 0
1 94 -12.8992 4.29975 -7.16625 0 0 1 -3.31139 0
1 96 -10.0328 4.29975 -7.16625 0 0 1 -3.9295 0
1 98 -7.16625 4.29975 -7.16625 0 0 1 -4.20358 0
1 114 -8.5995 5.733 -8.5995 0 0 1 -3.31068 0
1 100 -4.29975 4.29975 -7.16625 0 0 1 -4.20415 0
1 116 -5.733 5.733 -8.5995 0 0 1 -3.76161 0
1 102 -1.43325 4.29975 -7.16625 0 0 1 -3.94408 0
1 118 -2.8665 5.733 -8.5995 0 0 1 -3.92937 0
1 104 1.43325 4.29975 -7.16625 0 0 1 -3.94408 0
1 120 0 5.733 -8.5995 0 0 1 -4.0481 0
1 122 2.8665 5.733 -8.5995 0 0 1 -3.92937 0
1 106 4.29975 4.29975 -7.16625 0 0 1 -4.20415 0
1 124 5.733 5.733 -8.5995 0 0 1 -3.76161 0
1 108 7.16625 4.29975 -7.16625 0 0 1 -4.20358 0
1 126 8.5995 5.733 -8.5995 0 0 1 -3.31068 0
1 110 10.0328 4.29975 -7.16625 0 0 1 -3.9295 0
1 112 12.8992 4.29975 -7.16625 0 0 1 -3.31139 0
1 113 -10.0328 7.16625 -7.16625 0 0 1 -3.29851 0
1 115 -7.16625 7.16625 -7.16625 0 0 1 -3.78202 0
1 117 -4.29975 7.16625 -7.16625 0 0 1 -4.06197 0
1 128 -5.733 8.5995 -8.5995 0 0 1 -2.8815 0
1 119 -1.43325 7.16625 -7.16625 0 0 1 -4.203 0
1 130 -2.8665 8.5995 -8.5995 0 0 1 -3.44729 0
1 121 1.43325 7.16625 -7.16625 0 0 1 -4.203 0
1 132 0 8.5995 -8.5995 0 0 1 -3.60812 0
1 134 2.8665 8.5995 -8.5995 0 0 1 -3.44729 0
1 123 4.29975 7.16625 -7.16625 0 0 1 -4.06197 0
1 136 5.733 8.5995 -8.5995 0 0 1 -2.8815 0
1 125 7.16625 7.16625 -7.16625 0 0 1 -3.78202 0
1 127 10.0328 7.16625 -7.16625 0 0 1 -3.29851 0
1 129 -4.29975 10.0328 -7.16625 0 0 1 -3.28506 0
1 131 -1.43325 10.0328 -7.16625 0 0 1 -3.60856 0
1 133 1.43325 10.0328 -7.16625 0 0 1 -3.60856 0
1 135 4.29975 10.0328 -7.16625 0 0 1 -3.28506 0
1 137 -4.29975 -10.0328 -4.29975 0 0 1 -3.10852 0
1 138 -1.43325 -10.0328 -4.29975 0 0 1 -3.26921 0
1 139 1.43325 -10.0328 -4.29975 0 0 1 -3.26921 0
1 140 4.29975 -10.0328 -4.29975 0 0 1 -3.10852 0
1 141 -12.8992 -7.16625 -4.29975 0 0 1 -3.09563 0
1 142 -10.0328 -7.16625 -4.29975 0 0 1 -3.62156 0
1 143 -7.16625 -7.16625 -4.29975 0 0 1 -3.9295 0
1 144 -5.733 -8.5995 -5.733 0 0 1 -3.2978 0
1 145 -4.29975 -7.16625 -4.29975 0 0 1 -4.203 0
1 146 -2.8665 -8.5995 -5.733 0 0 1 -3.60869 0
1 147 -1.43325 -7.16625 -4.29975 0 0 1 -4.21572 0
1 148 0 -8.5995 -5.733 0 0 1 -3.60927 0
1 149 1.43325 -7.16625 -4.29975 0 0 1 -4.21572 0
1 150 2.8665 -8.5995 -5.733 0 0 1 -3.60869 0
1 151 4.29975 -7.16625 -4.29975 0 0 1 -4.203 0
1 152 5.733 -8.5995 -5.733 0 0 1 -3.2978 0
1 153 7.16625 -7.16625 -4.29975 0 0 1 -3.9295 0
1 154 10.0328 -7.16625 -4.29975 0 0 1 -3.62156 0
1 155 12.8992 -7.16625 -4.29975 0 0 1 -3.09563 0
1 156 -15.7657 -4.29975 -4.29975 0 0 1 -3.08286 0
1 157 -12.8992 -4.29975 -4.29975 0 0 1 -4.04632 0
1 158 -11.466 -5.733 -5.733 0 0 1 -3.47957 0
1 159 -10.0328 -4.29975 -4.29975 0 0 1 -4.21686 0
1 160 -8.5995 -5.733 -5.733 0 0 1 -3.79545 0
1 161 -7.16625 -4.29975 -4.29975 0 0 1 -4.23143 0
1 162 -5.733 -5.733 -5.733 0 0 1 -4.19029 0
1 163 -4.29975 -4.29975 -4.29975 0 0 1 -4.21872 0
1 164 -2.8665 -5.733 -5.733 0 0 1 -4.20358 0
1 165 -1.43325 -4.29975 -4.29975 0 0 1 -3.94536 0
1 166 0 -5.733 -5.733 0 0 1 -4.0874 0
1 167 1.43325 -4.29975 -4.29975 0 0 1 -3.94536 0
1 168 2.8665 -5.733 -5.733 0 0 1 -4.20358 0
1 169 4.29975 -4.29975 -4.29975 0 0 1 -4.21872 0
1 170 5.733 -5.733 -5.733 0 0 1 -4.19029 0
1 171 7.16625 -4.29975 -4.29975 0 0 1 -4.23143 0
1 172 8.5995 -5.733 -5.733 0 0 1 -3.79545 0
1 173 10.0328 -4.29975 -4.29975 0 0 1 -4.21686 0
1 174 11.466 -5.733 -5.733 0 0 1 -3.47957 0
1 175 12.8992 -4.29975 -4.29975 0 0 1 -4.04632 0
1 176 15.7657 -4.29975 -4.29975 0 0 1 -3.08286 0
1 177 -15.7657 -1.43325 -4.29975 0 0 1 -3.47785 0
1 178 -14.3325 -2.8665 -5.733 0 0 1 -3.47842 0
1 179 -12.8992 -1.43325 -4.29975 0 0 1 -3.93078 0
1 180 -11.466 -2.8665 -5.733 0 0 1 -4.18888 0
1 181 -10.0328 -1.43325 -4.29975 0 0 1 -4.21929 0
1 182 -8.5995 -2.8665 -5.733 0 0 1 -4.21757 0
1 183 -7.16625 -1.43325 -4.29975 0 0 1 -4.23214 0
1 184 -5.733 -2.8665 -5.733 0 0 1 -4.21814 0
1 185 -4.29975 -1.43325 -4.29975 0 0 1 -3.94536 0
1 186 -2.8665 -2.8665 -5.733 0 0 1 -3.67664 0
1 190 2.8665 -2.8665 -5.733 0 0 1 -3.67664 0
1 191 4.29975 -1.43325 -4.29975 0 0 1 -3.94536 0
1 192 5.733 -2.8665 -5.733 0 0 1 -4.21814 0
1 193 7.16625 -1.43325 -4.29975 0 0 1 -4.23214 0
1 194 8.5995 -2.8665 -5.733 0 0 1 -4.21757 0
1 195 10.0328 -1.43325 -4.29975 0 0 1 -4.21929 0
1 196 11.466 -2.8665 -5.733 0 0 1 -4.18888 0
1 197 12.8992 -1.43325 -4.29975 0 0 1 -3.93078 0
1 198 14.3325 -2.8665 -5.733 0 0 1 -3.47842 0
1 199 15.7657 -1.43325 -4.29975 0 0 1 -3.47785 0
1 200 -18.6322 1.43325 -4.29975 0 0 1 -2.92878 0
1 201 -17.199 0 -5.733 0 0 1 -3.08159 0
1 202 -15.7657 1.43325 -4.29975 0 0 1 -3.87574 0
1 227 -17.199 2.8665 -5.733 0 0 1 -3.09479 0
1 203 -14.3325 0 -5.733 0 0 1 -3.78043 0
1 204 -12.8992 1.43325 -4.29975 0 0 1 -3.94452 0
1 229 -14.3325 2.8665 -5.733 0 0 1 -3.90176 0
1 205 -11.466 0 -5.733 0 0 1 -4.20358 0
1 206 -10.0328 1.43325 -4.29975 0 0 1 -4.21929 0
1 231 -11.466 2.8665 -5.733 0 0 1 -4.20344 0
1 207 -8.5995 0 -5.733 0 0 1 -4.23214 0
1 208 -7.16625 1.43325 -4.29975 0 0 1 -4.23214 0
1 233 -8.5995 2.8665 -5.733 0 0 1 -4.23201 0
1 209 -5.733 0 -5.733 0 0 1 -4.10268 0
1 210 -4.29975 1.43325 -4.29975 0 0 1 -3.94536 0
1 235 -5.733 2.8665 -5.733 0 0 1 -4.21885 0
1 237 -2.8665 2.8665 -5.733 0 0 1 -3.67664 0
1 241 2.8665 2.8665 -5.733 0 0 1 -3.67664 0
1 216 4.29975 1.43325 -4.29975 0 0 1 -3.94536 0
1 217 5.733 0 -5.733 0 0 1 -4.10268 0
1 243 5.733 2.8665 -5.733 0 0 1 -4.21885 0
1 218 7.16625 1.43325 -4.29975 0 0 1 -4.23214 0
1 219 8.5995 0 -5.733 0 0 1 -4.23214 0
1 245 8.5995 2.8665 -5.733 0 0 1 -4.23201 0
1 220 10.0328 1.43325 -4.29975 0 0 1 -4.21929 0
1 221 11.466 0 -5.733 0 0 1 -4.20358 0
1 247 11.466 2.8665 -5.733 0 0 1 -4.20344 0
1 222 12.8992 1.43325 -4.29975 0 0 1 -3.94452 0
1 223 14.3325 0 -5.733 0 0 1 -3.78043 0
1 249 14.3325 2.8665 -5.733 0 0 1 -3.90176 0
1 224 15.7657 1.43325 -4.29975 0 0 1 -3.87574 0
1 225 17.199 0 -5.733 0 0 1 -3.08159 0
1 226 18.6322 1.43325 -4.29975 0 0 1 -2.92878 0
1 251 17.199 2.8665 -5.733 0 0 1 -3.09479 0
1 228 -15.7657 4.29975 -4.29975 0 0 1 -3.78004 0
1 230 -12.8992 4.29975 -4.29975 0 0 1 -4.19029 0
1 253 -14.3325 5.733 -5.733 0 0 1 -3.31068 0
1 232 -10.0328 4.29975 -4.29975 0 0 1 -4.23187 0
1 255 -11.466 5.733 -5.733 0 0 1 -3.92893 0
1 234 -7.16625 4.29975 -4.29975 0 0 1 -4.23271 0
1 257 -8.5995 5.733 -5.733 0 0 1 -4.20371 0
1 236 -4.29975 4.29975 -4.29975 0 0 1 -4.21872 0
1 259 -5.733 5.733 -5.733 0 0 1 -4.23086 0
1 238 -1.43325 4.29975 -4.29975 0 0 1 -3.94536 0
1 261 -2.8665 5.733 -5.733 0 0 1 -4.21828 0
1 240 1.43325 4.29975 -4.29975 0 0 1 -3.94536 0
1 263 0 5.733 -5.733 0 0 1 -4.10268 0
1 265 2.8665 5.733 -5.733 0 0 1 -4.21828 0
1 242 4.29975 4.29975 -4.29975 0 0 1 -4.21872 0
1 267 5.733 5.733 -5.733 0 0 1 -4.23086 0
1 244 7.16625 4.29975 -4.29975 0 0 1 -4.23271 0
1 269 8.5995 5.733 -5.733 0 0 1 -4.20371 0
1 246 10.0328 4.29975 -4.29975 0 0 1 -4.23187 0
1 271 11.466 5.733 -5.733 0 0 1 -3.92893 0
1 248 12.8992 4.29975 -4.29975 0 0 1 -4.19029 0
1 273 14.3325 5.733 -5.733 0 0 1 -3.31068 0
1 250 15.7657 4.29975 -4.29975 0 0 1 -3.78004 0
1 252 -15.7657 7.16625 -4.29975 0 0 1 -3.07081 0
1 254 -12.8992 7.16625 -4.29975 0 0 1 -3.79404 0
1 256 -10.0328 7.16625 -4.29975 0 0 1 -4.19029 0
1 275 -11.466 8.5995 -5.733 0 0 1 -3.09691 0
1 258 -7.16625 7.16625 -4.29975 0 0 1 -4.21814 0
1 277 -8.5995 8.5995 -5.733 0 0 1 -3.63416 0
1 260 -4.29975 7.16625 -4.29975 0 0 1 -4.23201 0
1 279 -5.733 8.5995 -5.733 0 0 1 -3.92906 0
1 262 -1.43325 7.16625 -4.29975 0 0 1 -4.23214 0
1 281 -2.8665 8.5995 -5.733 0 0 1 -4.20243 0
1 264 1.43325 7.16625 -4.29975 0 0 1 -4.23214 0
1 283 0 8.5995 -5.733 0 0 1 -4.21629 0
1 285 2.8665 8.5995 -5.733 0 0 1 -4.20243 0
1 266 4.29975 7.16625 -4.29975 0 0 1 -4.23201 0
1 287 5.733 8.5995 -5.733 0 0 1 -3.92906 0
1 268 7.16625 7.16625 -4.29975 0 0 1 -4.21814 0
1 289 8.5995 8.5995 -5.733 0 0 1 -3.63416 0
1 270 10.0328 7.16625 -4.29975 0 0 1 -4.19029 0
1 291 11.466 8.5995 -5.733 0 0 1 -3.09691 0
1 272 12.8992 7.16625 -4.29975 0 0 1 -3.79404 0
1 274 15.7657 7.16625 -4.29975 0 0 1 -3.07081 0
1 276 -10.0328 10.0328 -4.29975 0 0 1 -3.2978 0
1 278 -7.16625 10.0328 -4.29975 0 0 1 -3.6227 0
1 280 -4.29975 10.0328 -4.29975 0 0 1 -3.91735 0
1 282 -1.43325 10.0328 -4.29975 0 0 1 -4.06254 0
1 292 -2.8665 11.466 -5.733 0 0 1 -3.10909 0
1 284 1.43325 10.0328 -4.29975 0 0 1 -4.06254 0
1 293 0 11.466 -5.733 0 0 1 -3.26921 0
1 294 2.8665 11.466 -5.733 0 0 1 -3.10909 0
1 286 4.29975 10.0328 -4.29975 0 0 1 -3.91735 0
1 288 7.16625 10.0328 -4.29975 0 0 1 -3.6227 0
1 290 10.0328 10.0328 -4.29975 0 0 1 -3.2978 0
1 295 -7.16625 -10.0328 -1.43325 0 0 1 -3.123 0
1 296 -4.29975 -10.0328 -1.43325 0 0 1 -3.60755 0
1 297 -1.43325 -10.0328 -1.43325 0 0 1 -3.7742 0
1 298 1.43325 -10.0328 -1.43325 0 0 1 -3.7742 0
1 299 4.29975 -10.0328 -1.43325 0 0 1 -3.60755 0
1 300 7.16625 -10.0328 -1.43325 0 0 1 -3.123 0
1 301 -12.8992 -7.16625 -1.43325 0 0 1 -3.62098 0
1 302 -11.466 -8.5995 -2.8665 0 0 1 -3.09563 0
1 303 -10.0328 -7.16625 -1.43325 0 0 1 -4.07455 0
1 304 -8.5995 -8.5995 -2.8665 0 0 1 -3.46189 0
1 305 -7.16625 -7.16625 -1.43325 0 0 1 -4.20428 0
1 306 -5.733 -8.5995 -2.8665 0 0 1 -3.90406 0
1 307 -4.29975 -7.16625 -1.43325 0 0 1 -4.23086 0
1 308 -2.8665 -8.5995 -2.8665 0 0 1 -4.06241 0
1 309 -1.43325 -7.16625 -1.43325 0 0 1 -4.23156 0
1 310 0 -8.5995 -2.8665 0 0 1 -4.06312 0
1 311 1.43325 -7.16625 -1.43325 0 0 1 -4.23156 0
1 312 2.8665 -8.5995 -2.8665 0 0 1 -4.06241 0
1 313 4.29975 -7.16625 -1.43325 0 0 1 -4.23086 0
1 314 5.733 -8.5995 -2.8665 0 0 1 -3.90406 0
1 315 7.16625 -7.16625 -1.43325 0 0 1 -4.20428 0
1 316 8.5995 -8.5995 -2.8665 0 0 1 -3.46189 0
1 317 10.0328 -7.16625 -1.43325 0 0 1 -4.07455 0
1 318 11.466 -8.5995 -2.8665 0 0 1 -3.09563 0
1 319 12.8992 -7.16625 -1.43325 0 0 1 -3.62098 0
1 320 -15.7657 -4.29975 -1.43325 0 0 1 -3.47785 0
1 321 -14.3325 -5.733 -2.8665 0 0 1 -3.47842 0
1 322 -12.8992 -4.29975 -1.43325 0 0 1 -3.93078 0
1 323 -11.466 -5.733 -2.8665 0 0 1 -4.18888 0
1 324 -10.0328 -4.29975 -1.43325 0 0 1 -4.21929 0
1 325 -8.5995 -5.733 -2.8665 0 0 1 -4.21757 0
1 326 -7.16625 -4.29975 -1.43325 0 0 1 -4.23271 0
1 327 -5.733 -5.733 -2.8665 0 0 1 -4.23201 0
1 328 -4.29975 -4.29975 -1.43325 0 0 1 -4.23258 0
1 329 -2.8665 -5.733 -2.8665 0 0 1 -4.23201 0
1 330 -1.43325 -4.29975 -1.43325 0 0 1 -4.21872 0
1 331 0 -5.733 -2.8665 0 0 1 -4.21885 0
1 332 1.43325 -4.29975 -1.43325 0 0 1 -4.21872 0
1 333 2.8665 -5.733 -2.8665 0 0 1 -4.23201 0
1 334 4.29975 -4.29975 -1.43325 0 0 1 -4.23258 0
1 335 5.733 -5.733 -2.8665 0 0 1 -4.23201 0
1 336 7.16625 -4.29975 -1.43325 0 0 1 -4.23271 0
1 337 8.5995 -5.733 -2.8665 0 0 1 -4.21757 0
1 338 10.0328 -4.29975 -1.43325 0 0 1 -4.21929 0
1 339 11.466 -5.733 -2.8665 0 0 1 -4.18888 0
1 340 12.8992 -4.29975 -1.43325 0 0 1 -3.93078 0
1 341 14.3325 -5.733 -2.8665 0 0 1 -3.47842 0
1 342 15.7657 -4.29975 -1.43325 0 0 1 -3.47785 0
1 343 -18.6322 -1.43325 -1.43325 0 0 1 -2.92962 0
1 344 -17.199 -2.8665 -2.8665 0 0 1 -3.08229 0
1 346 -14.3325 -2.8665 -2.8665 0 0 1 -3.63442 0
1 348 -11.466 -2.8665 -2.8665 0 0 1 -4.07674 0
1 349 -10.0328 -1.43325 -1.43325 0 0 1 -4.07769 0
1 350 -8.5995 -2.8665 -2.8665 0 0 1 -4.23214 0
1 351 -7.16625 -1.43325 -1.43325 0 0 1 -4.23271 0
1 352 -5.733 -2.8665 -2.8665 0 0 1 -4.23201 0
1 353 -4.29975 -1.43325 -1.43325 0 0 1 -4.21872 0
1 354 -2.8665 -2.8665 -2.8665 0 0 1 -4.06415 0
1 355 -1.43325 -1.43325 -1.43325 0 0 1 -3.94536 0
1 356 0 -2.8665 -2.8665 0 0 1 -3.67664 0
1 357 1.43325 -1.43325 -1.43325 0 0 1 -3.94536 0
1 358 2.8665 -2.8665 -2.8665 0 0 1 -4.06415 0
1 359 4.29975 -1.43325 -1.43325 0 0 1 -4.21872 0
1 360 5.733 -2.8665 -2.8665 0 0 1 -4.23201 0
1 361 7.16625 -1.43325 -1.43325 0 0 1 -4.23271 0
1 362 8.5995 -2.8665 -2.8665 0 0 1 -4.23214 0
1 363 10.0328 -1.43325 -1.43325 0 0 1 -4.07769 0
1 364 11.466 -2.8665 -2.8665 0 0 1 -4.07674 0
1 366 14.3325 -2.8665 -2.8665 0 0 1 -3.63442 0
1 368 17.199 -2.8665 -2.8665 0 0 1 -3.08229 0
1 369 18.6322 -1.43325 -1.43325 0 0 1 -2.92962 0
1 370 -18.6322 1.43325 -1.43325 0 0 1 -3.42123 0
1 371 -17.199 0 -2.8665 0 0 1 -3.3094 0
1 398 -17.199 2.8665 -2.8665 0 0 1 -3.73372 0
1 400 -14.3325 2.8665 -2.8665 0 0 1 -3.67549 0
1 375 -11.466 0 -2.8665 0 0 1 -3.81552 0
1 376 -10.0328 1.43325 -1.43325 0 0 1 -4.07769 0
1 402 -11.466 2.8665 -2.8665 0 0 1 -4.07687 0
1 377 -8.5995 0 -2.8665 0 0 1 -4.23156 0
1 378 -7.16625 1.43325 -1.43325 0 0 1 -4.23271 0
1 404 -8.5995 2.8665 -2.8665 0 0 1 -4.23214 0
1 379 -5.733 0 -2.8665 0 0 1 -4.21885 0
1 380 -4.29975 1.43325 -1.43325 0 0 1 -4.21872 0
1 406 -5.733 2.8665 -2.8665 0 0 1 -4.23201 0
1 381 -2.8665 0 -2.8665 0 0 1 -3.67664 0
1 382 -1.43325 1.43325 -1.43325 0 0 1 -3.94536 0
1 408 -2.8665 2.8665 -2.8665 0 0 1 -4.06415 0
1 384 1.43325 1.43325 -1.43325 0 0 1 -3.94536 0
1 385 2.8665 0 -2.8665 0 0 1 -3.67664 0
1 410 0 2.8665 -2.8665 0 0 1 -3.67664 0
1 412 2.8665 2.8665 -2.8665 0 0 1 -4.06415 0
1 386 4.29975 1.43325 -1.43325 0 0 1 -4.21872 0
1 387 5.733 0 -2.8665 0 0 1 -4.21885 0
1 414 5.733 2.8665 -2.8665 0 0 1 -4.23201 0
1 388 7.16625 1.43325 -1.43325 0 0 1 -4.23271 0
1 389 8.5995 0 -2.8665 0 0 1 -4.23156 0
1 416 8.5995 2.8665 -2.8665 0 0 1 -4.23214 0
1 390 10.0328 1.43325 -1.43325 0 0 1 -4.07769 0
1 391 11.466 0 -2.8665 0 0 1 -3.81552 0
1 418 11.466 2.8665 -2.8665 0 0 1 -4.07687 0
1 420 14.3325 2.8665 -2.8665 0 0 1 -3.67549 0
1 395 17.199 0 -2.8665 0 0 1 -3.3094 0
1 396 18.6322 1.43325 -1.43325 0 0 1 -3.42123 0
1 422 17.199 2.8665 -2.8665 0 0 1 -3.73372 0
1 397 -18.6322 4.29975 -1.43325 0 0 1 -3.28334 0
1 399 -15.7657 4.29975 -1.43325 0 0 1 -3.91621 0
1 424 -17.199 5.733 -2.8665 0 0 1 -3.29666 0
1 401 -12.8992 4.29975 -1.43325 0 0 1 -3.94593 0
1 426 -14.3325 5.733 -2.8665 0 0 1 -4.17528 0
1 403 -10.0328 4.29975 -1.43325 0 0 1 -4.21929 0
1 428 -11.466 5.733 -2.8665 0 0 1 -4.23073 0
1 405 -7.16625 4.29975 -1.43325 0 0 1 -4.23271 0
1 430 -8.5995 5.733 -2.8665 0 0 1 -4.23271 0
1 407 -4.29975 4.29975 -1.43325 0 0 1 -4.23258 0
1 432 -5.733 5.733 -2.8665 0 0 1 -4.23271 0
1 409 -1.43325 4.29975 -1.43325 0 0 1 -4.21872 0
1 434 -2.8665 5.733 -2.8665 0 0 1 -4.23201 0
1 411 1.43325 4.29975 -1.43325 0 0 1 -4.21872 0
1 436 0 5.733 -2.8665 0 0 1 -4.21885 0
1 438 2.8665 5.733 -2.8665 0 0 1 -4.23201 0
1 413 4.29975 4.29975 -1.43325 0 0 1 -4.23258 0
1 440 5.733 5.733 -2.8665 0 0 1 -4.23271 0
1 415 7.16625 4.29975 -1.43325 0 0 1 -4.23271 0
1 442 8.5995 5.733 -2.8665 0 0 1 -4.23271 0
1 417 10.0328 4.29975 -1.43325 0 0 1 -4.21929 0
1 444 11.466 5.733 -2.8665 0 0 1 -4.23073 0
1 419 12.8992 4.29975 -1.43325 0 0 1 -3.94593 0
1 446 14.3325 5.733 -2.8665 0 0 1 -4.17528 0
1 421 15.7657 4.29975 -1.43325 0 0 1 -3.91621 0
1 423 18.6322 4.29975 -1.43325 0 0 1 -3.28334 0
1 448 17.199 5.733 -2.8665 0 0 1 -3.29666 0
1 425 -15.7657 7.16625 -1.43325 0 0 1 -3.62028 0
1 427 -12.8992 7.16625 -1.43325 0 0 1 -4.203 0
1 449 -14.3325 8.5995 -2.8665 0 0 1 -3.29736 0
1 429 -10.0328 7.16625 -1.43325 0 0 1 -4.23201 0
1 451 -11.466 8.5995 -2.8665 0 0 1 -3.92893 0
1 431 -7.16625 7.16625 -1.43325 0 0 1 -4.23271 0
1 453 -8.5995 8.5995 -2.8665 0 0 1 -4.203 0
1 433 -4.29975 7.16625 -1.43325 0 0 1 -4.23271 0
1 455 -5.733 8.5995 -2.8665 0 0 1 -4.21757 0
1 435 -1.43325 7.16625 -1.43325 0 0 1 -4.23271 0
1 457 -2.8665 8.5995 -2.8665 0 0 1 -4.23143 0
1 437 1.43325 7.16625 -1.43325 0 0 1 -4.23271 0
1 459 0 8.5995 -2.8665 0 0 1 -4.23156 0
1 461 2.8665 8.5995 -2.8665 0 0 1 -4.23143 0
1 439 4.29975 7.16625 -1.43325 0 0 1 -4.23271 0
1 463 5.733 8.5995 -2.8665 0 0 1 -4.21757 0
1 441 7.16625 7.16625 -1.43325 0 0 1 -4.23271 0
1 465 8.5995 8.5995 -2.8665 0 0 1 -4.203 0
1 443 10.0328 7.16625 -1.43325 0 0 1 -4.23201 0
1 467 11.466 8.5995 -2.8665 0 0 1 -3.92893 0
1 445 12.8992 7.16625 -1.43325 0 0 1 -4.203 0
1 469 14.3325 8.5995 -2.8665 0 0 1 -3.29736 0
1 447 15.7657 7.16625 -1.43325 0 0 1 -3.62028 0
1 450 -12.8992 10.0328 -1.43325 0 0 1 -3.29794 0
1 452 -10.0328 10.0328 -1.43325 0 0 1 -3.90406 0
1 454 -7.16625 10.0328 -1.43325 0 0 1 -4.07513 0
1 470 -8.5995 11.466 -2.8665 0 0 1 -3.10909 0
1 456 -4.29975 10.0328 -1.43325 0 0 1 -4.20415 0
1 471 -5.733 11.466 -2.8665 0 0 1 -3.46131 0
1 458 -1.43325 10.0328 -1.43325 0 0 1 -4.21744 0
1 473 -2.8665 11.466 -2.8665 0 0 1 -3.76147 0
1 460 1.43325 10.0328 -1.43325 0 0 1 -4.21744 0
1 475 0 11.466 -2.8665 0 0 1 -3.77478 0
1 477 2.8665 11.466 -2.8665 0 0 1 -3.76147 0
1 462 4.29975 10.0328 -1.43325 0 0 1 -4.20415 0
1 479 5.733 11.466 -2.8665 0 0 1 -3.46131 0
1 464 7.16625 10.0328 -1.43325 0 0 1 -4.07513 0
1 480 8.5995 11.466 -2.8665 0 0 1 -3.10909 0
1 466 10.0328 10.0328 -1.43325 0 0 1 -3.90406 0
1 468 12.8992 10.0328 -1.43325 0 0 1 -3.29794 0
1 472 -4.29975 12.8992 -1.43325 0 0 1 -3.10909 0
1 474 -1.43325 12.8992 -1.43325 0 0 1 -3.26921 0
1 476 1.43325 12.8992 -1.43325 0 0 1 -3.26921 0
1 478 4.29975 12.8992 -1.43325 0 0 1 -3.10909 0
1 481 -10.0328 -10.0328 1.43325 0 0 1 -3.10559 0
1 482 -7.16625 -10.0328 1.43325 0 0 1 -3.60346 0
1 483 -4.29975 -10.0328 1.43325 0 0 1 -3.91198 0
1 688 -5.733 -11.466 2.8665 0 0 1 -2.93602 0
1 484 -2.8665 -11.466 0 0 0 1 -3.10967 0
1 485 -1.43325 -10.0328 1.43325 0 0 1 -4.04371 0
1 690 -2.8665 -11.466 2.8665 0 0 1 -3.2817 0
1 486 0 -11.466 0 0 0 1 -3.26921 0
1 487 1.43325 -10.0328 1.43325 0 0 1 -4.04371 0
1 488 2.8665 -11.466 0 0 0 1 -3.10967 0
1 692 0 -11.466 2.8665 0 0 1 -3.38534 0
1 694 2.8665 -11.466 2.8665 0 0 1 -3.2817 0
1 489 4.29975 -10.0328 1.43325 0 0 1 -3.91198 0
1 696 5.733 -11.466 2.8665 0 0 1 -2.93602 0
1 490 7.16625 -10.0328 1.43325 0 0 1 -3.60346 0
1 491 10.0328 -10.0328 1.43325 0 0 1 -3.10559 0
1 492 -15.7657 -7.16625 1.43325 0 0 1 -3.10606 0
1 493 -12.8992 -7.16625 1.43325 0 0 1 -3.76907 0
1 494 -11.466 -8.5995 0 0 0 1 -3.44857 0
1 495 -10.0328 -7.16625 1.43325 0 0 1 -4.19654 0
1 701 -11.466 -8.5995 2.8665 0 0 1 -3.57671 0
1 496 -8.5995 -8.5995 0 0 0 1 -3.91678 0
1 497 -7.16625 -7.16625 1.43325 0 0 1 -4.22382 0
1 703 -8.5995 -8.5995 2.8665 0 0 1 -4.03131 0
1 498 -5.733 -8.5995 0 0 0 1 -4.0757 0
1 499 -4.29975 -7.16625 1.43325 0 0 1 -4.2251 0
1 705 -5.733 -8.5995 2.8665 0 0 1 -4.15924 0
1 500 -2.8665 -8.5995 0 0 0 1 -4.20472 0
1 501 -1.43325 -7.16625 1.43325 0 0 1 -4.22568 0
1 707 -2.8665 -8.5995 2.8665 0 0 1 -4.18389 0
1 502 0 -8.5995 0 0 0 1 -4.21744 0
1 503 1.43325 -7.16625 1.43325 0 0 1 -4.22568 0
1 504 2.8665 -8.5995 0 0 0 1 -4.20472 0
1 709 0 -8.5995 2.8665 0 0 1 -4.204 0
1 711 2.8665 -8.5995 2.8665 0 0 1 -4.18389 0
1 505 4.29975 -7.16625 1.43325 0 0 1 -4.2251 0
1 506 5.733 -8.5995 0 0 0 1 -4.0757 0
1 713 5.733 -8.5995 2.8665 0 0 1 -4.15924 0
1 507 7.16625 -7.16625 1.43325 0 0 1 -4.22382 0
1 508 8.5995 -8.5995 0 0 0 1 -3.91678 0
1 715 8.5995 -8.5995 2.8665 0 0 1 -4.03131 0
1 509 10.0328 -7.16625 1.43325 0 0 1 -4.19654 0
1 510 11.466 -8.5995 0 0 0 1 -3.44857 0
1 717 11.466 -8.5995 2.8665 0 0 1 -3.57671 0
1 511 12.8992 -7.16625 1.43325 0 0 1 -3.76907 0
1 512 15.7657 -7.16625 1.43325 0 0 1 -3.10606 0
1 513 -18.6322 -4.29975 1.43325 0 0 1 -3.0926 0
1 514 -17.199 -5.733 0 0 0 1 -3.08273 0
1 515 -15.7657 -4.29975 1.43325 0 0 1 -3.89592 0
1 721 -17.199 -5.733 2.8665 0 0 1 -3.46441 0
1 516 -14.3325 -5.733 0 0 0 1 -3.78101 0
1 517 -12.8992 -4.29975 1.43325 0 0 1 -3.93762 0
1 723 -14.3325 -5.733 2.8665 0 0 1 -3.99747 0
1 518 -11.466 -5.733 0 0 0 1 -4.20358 0
1 519 -10.0328 -4.29975 1.43325 0 0 1 -4.21226 0
1 725 -11.466 -5.733 2.8665 0 0 1 -4.19081 0
1 520 -8.5995 -5.733 0 0 0 1 -4.23214 0
1 521 -7.16625 -4.29975 1.43325 0 0 1 -4.22568 0
1 727 -8.5995 -5.733 2.8665 0 0 1 -4.20474 0
1 522 -5.733 -5.733 0 0 0 1 -4.23271 0
1 523 -4.29975 -4.29975 1.43325 0 0 1 -4.22568 0
1 729 -5.733 -5.733 2.8665 0 0 1 -4.20474 0
1 524 -2.8665 -5.733 0 0 0 1 -4.23271 0
1 525 -1.43325 -4.29975 1.43325 0 0 1 -4.22568 0
1 731 -2.8665 -5.733 2.8665 0 0 1 -4.20474 0
1 526 0 -5.733 0 0 0 1 -4.23271 0
1 527 1.43325 -4.29975 1.43325 0 0 1 -4.22568 0
1 528 2.8665 -5.733 0 0 0 1 -4.23271 0
1 733 0 -5.733 2.8665 0 0 1 -4.20474 0
1 735 2.8665 -5.733 2.8665 0 0 1 -4.20474 0
1 529 4.29975 -4.29975 1.43325 0 0 1 -4.22568 0
1 530 5.733 -5.733 0 0 0 1 -4.23271 0
1 737 5.733 -5.733 2.8665 0 0 1 -4.20474 0
1 531 7.16625 -4.29975 1.43325 0 0 1 -4.22568 0
1 532 8.5995 -5.733 0 0 0 1 -4.23214 0
1 739 8.5995 -5.733 2.8665 0 0 1 -4.20474 0
1 533 10.0328 -4.29975 1.43325 0 0 1 -4.21226 0
1 534 11.466 -5.733 0 0 0 1 -4.20358 0
1 741 11.466 -5.733 2.8665 0 0 1 -4.19081 0
1 535 12.8992 -4.29975 1.43325 0 0 1 -3.93762 0
1 536 14.3325 -5.733 0 0 0 1 -3.78101 0
1 743 14.3325 -5.733 2.8665 0 0 1 -3.99747 0
1 537 15.7657 -4.29975 1.43325 0 0 1 -3.89592 0
1 538 17.199 -5.733 0 0 0 1 -3.08273 0
1 539 18.6322 -4.29975 1.43325 0 0 1 -3.0926 0
1 745 17.199 -5.733 2.8665 0 0 1 -3.46441 0
1 540 -18.6322 -1.43325 1.43325 0 0 1 -3.42929 0
1 541 -17.199 -2.8665 0 0 0 1 -3.30998 0
1 748 -17.199 -2.8665 2.8665 0 0 1 -3.83989 0
1 750 -14.3325 -2.8665 2.8665 0 0 1 -3.65471 0
1 545 -11.466 -2.8665 0 0 0 1 -3.81552 0
1 546 -10.0328 -1.43325 1.43325 0 0 1 -4.07065 0
1 752 -11.466 -2.8665 2.8665 0 0 1 -4.05028 0
1 547 -8.5995 -2.8665 0 0 0 1 -4.23156 0
1 548 -7.16625 -1.43325 1.43325 0 0 1 -4.22568 0
1 754 -8.5995 -2.8665 2.8665 0 0 1 -4.20416 0
1 549 -5.733 -2.8665 0 0 0 1 -4.23271 0
1 550 -4.29975 -1.43325 1.43325 0 0 1 -4.22673 0
1 756 -5.733 -2.8665 2.8665 0 0 1 -4.20551 0
1 551 -2.8665 -2.8665 0 0 0 1 -4.23201 0
1 552 -1.43325 -1.43325 1.43325 0 0 1 -4.21463 0
1 758 -2.8665 -2.8665 2.8665 0 0 1 -4.18693 0
1 553 0 -2.8665 0 0 0 1 -4.21885 0
1 554 1.43325 -1.43325 1.43325 0 0 1 -4.21463 0
1 555 2.8665 -2.8665 0 0 0 1 -4.23201 0
1 760 0 -2.8665 2.8665 0 0 1 -4.18832 0
1 762 2.8665 -2.8665 2.8665 0 0 1 -4.18693 0
1 556 4.29975 -1.43325 1.43325 0 0 1 -4.22673 0
1 557 5.733 -2.8665 0 0 0 1 -4.23271 0
1 764 5.733 -2.8665 2.8665 0 0 1 -4.20551 0
1 558 7.16625 -1.43325 1.43325 0 0 1 -4.22568 0
1 559 8.5995 -2.8665 0 0 0 1 -4.23156 0
1 766 8.5995 -2.8665 2.8665 0 0 1 -4.20416 0
1 560 10.0328 -1.43325 1.43325 0 0 1 -4.07065 0
1 561 11.466 -2.8665 0 0 0 1 -3.81552 0
1 768 11.466 -2.8665 2.8665 0 0 1 -4.05028 0
1 770 14.3325 -2.8665 2.8665 0 0 1 -3.65471 0
1 565 17.199 -2.8665 0 0 0 1 -3.30998 0
1 566 18.6322 -1.43325 1.43325 0 0 1 -3.42929 0
1 772 17.199 -2.8665 2.8665 0 0 1 -3.83989 0
1 567 -20.0655 0 0 0 0 1 -2.92803 0
1 596 -20.0655 2.8665 0 0 0 1 -3.08128 0
1 774 -20.0655 0 2.8665 0 0 1 -3.20493 0
1 803 -20.0655 2.8665 2.8665 0 0 1 -3.12117 0
1 568 -18.6322 1.43325 1.43325 0 0 1 -3.74874 0
1 598 -17.199 2.8665 0 0 0 1 -3.64676 0
1 776 -17.199 0 2.8665 0 0 1 -3.6402 0
1 805 -17.199 2.8665 2.8665 0 0 1 -4.00256 0
1 807 -14.3325 2.8665 2.8665 0 0 1 -3.65394 0
1 573 -11.466 0 0 0 0 1 -3.4543 0
1 574 -10.0328 1.43325 1.43325 0 0 1 -4.07065 0
1 602 -11.466 2.8665 0 0 0 1 -3.81552 0
1 780 -11.466 0 2.8665 0 0 1 -3.79162 0
1 809 -11.466 2.8665 2.8665 0 0 1 -4.05028 0
1 575 -8.5995 0 0 0 0 1 -4.23042 0
1 576 -7.16625 1.43325 1.43325 0 0 1 -4.22568 0
1 604 -8.5995 2.8665 0 0 0 1 -4.23156 0
1 782 -8.5995 0 2.8665 0 0 1 -4.20359 0
1 811 -8.5995 2.8665 2.8665 0 0 1 -4.20416 0
1 577 -5.733 0 0 0 0 1 -4.23271 0
1 578 -4.29975 1.43325 1.43325 0 0 1 -4.2152 0
1 606 -5.733 2.8665 0 0 0 1 -4.23271 0
1 784 -5.733 0 2.8665 0 0 1 -4.18693 0
1 813 -5.733 2.8665 2.8665 0 0 1 -4.18832 0
1 579 -2.8665 0 0 0 0 1 -4.21828 0
1 580 -1.43325 1.43325 1.43325 0 0 1 -4.07654 0
1 608 -2.8665 2.8665 0 0 0 1 -4.23086 0
1 786 -2.8665 0 2.8665 0 0 1 -3.95364 0
1 815 -2.8665 2.8665 2.8665 0 0 1 -3.79447 0
1 581 0 0 0 0 0 1 -4.10153 0
1 582 1.43325 1.43325 1.43325 0 0 1 -4.07654 0
1 583 2.8665 0 0 0 0 1 -4.21828 0
1 610 0 2.8665 0 0 0 1 -4.21656 0
1 612 2.8665 2.8665 0 0 0 1 -4.23086 0
1 788 0 0 2.8665 0 0 1 -3.79447 0
1 790 2.8665 0 2.8665 0 0 1 -3.95364 0
1 817 0 2.8665 2.8665 0 0 1 -3.45377 0
1 819 2.8665 2.8665 2.8665 0 0 1 -3.79447 0
1 584 4.29975 1.43325 1.43325 0 0 1 -4.2152 0
1 585 5.733 0 0 0 0 1 -4.23271 0
1 614 5.733 2.8665 0 0 0 1 -4.23271 0
1 792 5.733 0 2.8665 0 0 1 -4.18693 0
1 821 5.733 2.8665 2.8665 0 0 1 -4.18832 0
1 586 7.16625 1.43325 1.43325 0 0 1 -4.22568 0
1 587 8.5995 0 0 0 0 1 -4.23042 0
1 616 8.5995 2.8665 0 0 0 1 -4.23156 0
1 794 8.5995 0 2.8665 0 0 1 -4.20359 0
1 823 8.5995 2.8665 2.8665 0 0 1 -4.20416 0
1 588 10.0328 1.43325 1.43325 0 0 1 -4.07065 0
1 589 11.466 0 0 0 0 1 -3.4543 0
1 618 11.466 2.8665 0 0 0 1 -3.81552 0
1 796 11.466 0 2.8665 0 0 1 -3.79162 0
1 825 11.466 2.8665 2.8665 0 0 1 -4.05028 0
1 827 14.3325 2.8665 2.8665 0 0 1 -3.65394 0
1 594 18.6322 1.43325 1.43325 0 0 1 -3.74874 0
1 622 17.199 2.8665 0 0 0 1 -3.64676 0
1 800 17.199 0 2.8665 0 0 1 -3.6402 0
1 829 17.199 2.8665 2.8665 0 0 1 -4.00256 0
1 595 20.0655 0 0 0 0 1 -2.92803 0
1 624 20.0655 2.8665 0 0 0 1 -3.08128 0
1 802 20.0655 0 2.8665 0 0 1 -3.20493 0
1 831 20.0655 2.8665 2.8665 0 0 1 -3.12117 0
1 597 -18.6322 4.29975 1.43325 0 0 1 -3.59059 0
1 599 -15.7657 4.29975 1.43325 0 0 1 -3.92304 0
1 625 -17.199 5.733 0 0 0 1 -3.60768 0
1 832 -17.199 5.733 2.8665 0 0 1 -3.58712 0
1 601 -12.8992 4.29975 1.43325 0 0 1 -3.9389 0
1 627 -14.3325 5.733 0 0 0 1 -4.0874 0
1 834 -14.3325 5.733 2.8665 0 0 1 -4.17651 0
1 603 -10.0328 4.29975 1.43325 0 0 1 -4.21226 0
1 629 -11.466 5.733 0 0 0 1 -4.21885 0
1 836 -11.466 5.733 2.8665 0 0 1 -4.20403 0
1 605 -7.16625 4.29975 1.43325 0 0 1 -4.22568 0
1 631 -8.5995 5.733 0 0 0 1 -4.23271 0
1 838 -8.5995 5.733 2.8665 0 0 1 -4.20474 0
1 607 -4.29975 4.29975 1.43325 0 0 1 -4.2152 0
1 633 -5.733 5.733 0 0 0 1 -4.23271 0
1 840 -5.733 5.733 2.8665 0 0 1 -4.18693 0
1 609 -1.43325 4.29975 1.43325 0 0 1 -4.07711 0
1 635 -2.8665 5.733 0 0 0 1 -4.23214 0