ITEM: TIMESTEP
0
ITEM: NUMBER OF ATOMS
1067
ITEM: BOX BOUNDS pp pp pp
-2.5000000000000000e+01 2.5000000000000000e+01
-2.5000000000000000e+01 2.5000000000000000e+01
-2.5000000000000000e+01 2.5000000000000000e+01
ITEM: ATOMS type id x y z c_outsp[1] c_outsp[2] c_outsp[3] c_peAtom c_keAtom
2 1 -21.4987 -4.29975 -7.16625 0 0 1 -2.74166 0
1 2 -18.6322 -4.29975 -7.16625 0 0 1 -3.51515 0
2 3 -15.7657 -4.29975 -7.16625 0 0 1 -3.79016 0
2 4 -12.8992 -4.29975 -7.16625 0 0 1 -3.81193 0
1 17 -21.4987 -1.43325 -7.16625 0 0 1 -3.18316 0
2 18 -20.0655 -2.8665 -8.5995 0 0 1 -3.11216 0
1 19 -18.6322 -1.43325 -7.16625 0 0 1 -4.00956 0
2 20 -17.199 -2.8665 -8.5995 0 0 1 -3.31236 0
1 21 -15.7657 -1.43325 -7.16625 0 0 1 -4.00968 0
1 22 -14.3325 -2.8665 -8.5995 0 0 1 -3.17192 0
1 23 -12.8992 -1.43325 -7.16625 0 0 1 -3.96294 0
2 24 -11.466 -2.8665 -8.5995 0 0 1 -3.32959 0
2 482 -21.4987 1.43325 -7.16625 0 0 1 -3.31174 0
1 483 -20.0655 0 -8.5995 0 0 1 -3.21607 0
1 484 -18.6322 1.43325 -7.16625 0 0 1 -4.0092 0
1 514 -20.0655 2.8665 -8.5995 0 0 1 -3.02787 0
1 485 -17.199 0 -8.5995 0 0 1 -3.41673 0
1 486 -15.7657 1.43325 -7.16625 0 0 1 -4.00394 0
1 516 -17.199 2.8665 -8.5995 0 0 1 -3.23579 0
1 487 -14.3325 0 -8.5995 0 0 1 -3.42615 0
2 488 -12.8992 1.43325 -7.16625 0 0 1 -4.24494 0
2 518 -14.3325 2.8665 -8.5995 0 0 1 -3.28756 0
1 489 -11.466 0 -8.5995 0 0 1 -3.33274 0
2 520 -11.466 2.8665 -8.5995 0 0 1 -3.26445 0
2 513 -21.4987 4.29975 -7.16625 0 0 1 -2.74644 0
1 515 -18.6322 4.29975 -7.16625 0 0 1 -3.55599 0
1 517 -15.7657 4.29975 -7.16625 0 0 1 -3.55595 0
2 519 -12.8992 4.29975 -7.16625 0 0 1 -3.78752 0
1 48 -21.4987 -7.16625 -4.29975 0 0 1 -2.78063 0
1 49 -18.6322 -7.16625 -4.29975 0 0 1 -3.5736 0
2 50 -15.7657 -7.16625 -4.29975 0 0 1 -3.80409 0
1 51 -12.8992 -7.16625 -4.29975 0 0 1 -3.52468 0
1 66 -18.6322 -4.29975 -4.29975 0 0 1 -4.13019 0
2 65 -20.0655 -5.733 -5.733 0 0 1 -3.64569 0
2 64 -21.4987 -4.29975 -4.29975 0 0 1 -3.48957 0
1 68 -15.7657 -4.29975 -4.29975 0 0 1 -4.09277 0
2 67 -17.199 -5.733 -5.733 0 0 1 -3.81284 0
2 70 -12.8992 -4.29975 -4.29975 0 0 1 -4.37487 0
1 69 -14.3325 -5.733 -5.733 0 0 1 -3.56854 0
1 71 -11.466 -5.733 -5.733 0 0 1 -3.54156 0
2 97 -18.6322 -1.43325 -4.29975 0 0 1 -4.40658 0
1 96 -20.0655 -2.8665 -5.733 0 0 1 -3.95398 0
1 95 -21.4987 -1.43325 -4.29975 0 0 1 -3.3354 0
1 99 -15.7657 -1.43325 -4.29975 0 0 1 -4.18588 0
1 98 -17.199 -2.8665 -5.733 0 0 1 -4.13401 0
1 101 -12.8992 -1.43325 -4.29975 0 0 1 -4.1513 0
1 100 -14.3325 -2.8665 -5.733 0 0 1 -4.14694 0
2 102 -11.466 -2.8665 -5.733 0 0 1 -4.39283 0
2 544 -21.4987 1.43325 -4.29975 0 0 1 -3.49682 0
2 576 -20.0655 2.8665 -5.733 0 0 1 -4.21455 0
1 545 -20.0655 0 -5.733 0 0 1 -3.95102 0
1 546 -18.6322 1.43325 -4.29975 0 0 1 -4.13961 0
1 578 -17.199 2.8665 -5.733 0 0 1 -4.08911 0
1 547 -17.199 0 -5.733 0 0 1 -4.2422 0
1 548 -15.7657 1.43325 -4.29975 0 0 1 -4.18594 0
1 582 -11.466 2.8665 -5.733 0 0 1 -4.04724 0
1 580 -14.3325 2.8665 -5.733 0 0 1 -4.14518 0
1 549 -14.3325 0 -5.733 0 0 1 -4.18335 0
2 550 -12.8992 1.43325 -4.29975 0 0 1 -4.43101 0
2 551 -11.466 0 -5.733 0 0 1 -4.37551 0
2 607 -20.0655 5.733 -5.733 0 0 1 -3.64254 0
1 577 -18.6322 4.29975 -4.29975 0 0 1 -4.18792 0
1 575 -21.4987 4.29975 -4.29975 0 0 1 -3.27399 0
2 609 -17.199 5.733 -5.733 0 0 1 -3.8199 0
1 579 -15.7657 4.29975 -4.29975 0 0 1 -4.18033 0
1 613 -11.466 5.733 -5.733 0 0 1 -3.53586 0
2 611 -14.3325 5.733 -5.733 0 0 1 -3.79529 0
1 581 -12.8992 4.29975 -4.29975 0 0 1 -4.10082 0
2 608 -18.6322 7.16625 -4.29975 0 0 1 -3.81255 0
2 606 -21.4987 7.16625 -4.29975 0 0 1 -2.77902 0
2 610 -15.7657 7.16625 -4.29975 0 0 1 -3.80278 0
2 612 -12.8992 7.16625 -4.29975 0 0 1 -3.81968 0
1 128 -18.6322 -7.16625 -1.43325 0 0 1 -3.90949 0
1 127 -20.0655 -8.5995 -2.8665 0 0 1 -3.0827 0
2 126 -21.4987 -7.16625 -1.43325 0 0 1 -3.27665 0
2 130 -15.7657 -7.16625 -1.43325 0 0 1 -4.26532 0
1 129 -17.199 -8.5995 -2.8665 0 0 1 -3.26317 0
1 132 -12.8992 -7.16625 -1.43325 0 0 1 -4.01767 0
1 131 -14.3325 -8.5995 -2.8665 0 0 1 -3.21569 0
1 133 -11.466 -8.5995 -2.8665 0 0 1 -3.2367 0
1 159 -18.6322 -4.29975 -1.43325 0 0 1 -4.25545 0
1 158 -20.0655 -5.733 -2.8665 0 0 1 -3.93761 0
1 157 -21.4987 -4.29975 -1.43325 0 0 1 -3.31568 0
1 161 -15.7657 -4.29975 -1.43325 0 0 1 -4.19224 0
1 160 -17.199 -5.733 -2.8665 0 0 1 -4.18206 0
1 163 -12.8992 -4.29975 -1.43325 0 0 1 -4.13982 0
1 162 -14.3325 -5.733 -2.8665 0 0 1 -4.17615 0
1 164 -11.466 -5.733 -2.8665 0 0 1 -4.148 0
1 190 -18.6322 -1.43325 -1.43325 0 0 1 -4.14895 0
1 189 -20.0655 -2.8665 -2.8665 0 0 1 -4.01439 0
1 188 -21.4987 -1.43325 -1.43325 0 0 1 -3.38724 0
1 192 -15.7657 -1.43325 -1.43325 0 0 1 -4.19006 0
1 191 -17.199 -2.8665 -2.8665 0 0 1 -4.14695 0
1 194 -12.8992 -1.43325 -1.43325 0 0 1 -4.1442 0
2 193 -14.3325 -2.8665 -2.8665 0 0 1 -4.40589 0
2 195 -11.466 -2.8665 -2.8665 0 0 1 -4.42263 0
1 669 -20.0655 2.8665 -2.8665 0 0 1 -3.91159 0
1 639 -18.6322 1.43325 -1.43325 0 0 1 -4.14628 0
2 638 -20.0655 0 -2.8665 0 0 1 -4.22786 0
2 637 -21.4987 1.43325 -1.43325 0 0 1 -3.49962 0
2 671 -17.199 2.8665 -2.8665 0 0 1 -4.39111 0
1 641 -15.7657 1.43325 -1.43325 0 0 1 -4.19097 0
1 640 -17.199 0 -2.8665 0 0 1 -4.11194 0
2 675 -11.466 2.8665 -2.8665 0 0 1 -4.3678 0
1 673 -14.3325 2.8665 -2.8665 0 0 1 -4.09346 0
1 644 -11.466 0 -2.8665 0 0 1 -4.0732 0
2 643 -12.8992 1.43325 -1.43325 0 0 1 -4.37553 0
1 642 -14.3325 0 -2.8665 0 0 1 -4.17379 0
1 700 -20.0655 5.733 -2.8665 0 0 1 -4.0003 0
1 670 -18.6322 4.29975 -1.43325 0 0 1 -4.19568 0
2 668 -21.4987 4.29975 -1.43325 0 0 1 -3.54825 0
1 702 -17.199 5.733 -2.8665 0 0 1 -4.1239 0
1 672 -15.7657 4.29975 -1.43325 0 0 1 -4.19133 0
1 706 -11.466 5.733 -2.8665 0 0 1 -4.07997 0
1 704 -14.3325 5.733 -2.8665 0 0 1 -4.18318 0
1 674 -12.8992 4.29975 -1.43325 0 0 1 -4.16097 0
1 730 -20.0655 8.5995 -2.8665 0 0 1 -3.02612 0
1 701 -18.6322 7.16625 -1.43325 0 0 1 -4.01753 0
1 699 -21.4987 7.16625 -1.43325 0 0 1 -3.17954 0
1 731 -17.199 8.5995 -2.8665 0 0 1 -3.25966 0
1 703 -15.7657 7.16625 -1.43325 0 0 1 -3.93116 0
1 733 -11.466 8.5995 -2.8665 0 0 1 -3.25418 0
1 732 -14.3325 8.5995 -2.8665 0 0 1 -3.24153 0
2 705 -12.8992 7.16625 -1.43325 0 0 1 -4.27554 0
1 219 -21.4987 -7.16625 1.43325 0 0 1 -3.11875 0
1 220 -20.0655 -8.5995 0 0 0 1 -3.20092 0
2 221 -18.6322 -7.16625 1.43325 0 0 1 -4.21625 0
1 313 -20.0655 -8.5995 2.8665 0 0 1 -3.04364 0
1 222 -17.199 -8.5995 0 0 0 1 -3.37018 0
1 223 -15.7657 -7.16625 1.43325 0 0 1 -3.90341 0
2 315 -17.199 -8.5995 2.8665 0 0 1 -3.30187 0
2 224 -14.3325 -8.5995 0 0 0 1 -3.52302 0
1 225 -12.8992 -7.16625 1.43325 0 0 1 -3.97087 0
2 226 -11.466 -8.5995 0 0 0 1 -3.50601 0
1 319 -11.466 -8.5995 2.8665 0 0 1 -3.14664 0
2 317 -14.3325 -8.5995 2.8665 0 0 1 -3.34672 0
2 250 -21.4987 -4.29975 1.43325 0 0 1 -3.50574 0
2 251 -20.0655 -5.733 0 0 0 1 -4.22539 0
1 252 -18.6322 -4.29975 1.43325 0 0 1 -4.0958 0
1 344 -20.0655 -5.733 2.8665 0 0 1 -3.95003 0
1 253 -17.199 -5.733 0 0 0 1 -4.10042 0
1 254 -15.7657 -4.29975 1.43325 0 0 1 -4.16403 0
2 346 -17.199 -5.733 2.8665 0 0 1 -4.3973 0
1 255 -14.3325 -5.733 0 0 0 1 -4.15232 0
2 256 -12.8992 -4.29975 1.43325 0 0 1 -4.41742 0
1 257 -11.466 -5.733 0 0 0 1 -4.1998 0
1 350 -11.466 -5.733 2.8665 0 0 1 -4.1384 0
2 348 -14.3325 -5.733 2.8665 0 0 1 -4.37914 0
1 375 -20.0655 -2.8665 2.8665 0 0 1 -4.02497 0
2 283 -18.6322 -1.43325 1.43325 0 0 1 -4.42636 0
1 282 -20.0655 -2.8665 0 0 0 1 -3.91074 0
2 281 -21.4987 -1.43325 1.43325 0 0 1 -3.52395 0
1 377 -17.199 -2.8665 2.8665 0 0 1 -4.09561 0
2 285 -15.7657 -1.43325 1.43325 0 0 1 -4.40054 0
2 284 -17.199 -2.8665 0 0 0 1 -4.38312 0
2 381 -11.466 -2.8665 2.8665 0 0 1 -4.3642 0
1 379 -14.3325 -2.8665 2.8665 0 0 1 -4.14844 0
1 288 -11.466 -2.8665 0 0 0 1 -4.10378 0
2 287 -12.8992 -1.43325 1.43325 0 0 1 -4.39264 0
1 286 -14.3325 -2.8665 0 0 0 1 -4.11213 0
1 745 -21.4987 1.43325 1.43325 0 0 1 -3.27767 0
2 746 -20.0655 0 0 0 0 1 -4.23637 0
2 747 -18.6322 1.43325 1.43325 0 0 1 -4.36419 0
1 777 -20.0655 2.8665 0 0 0 1 -3.96265 0
2 885 -20.0655 2.8665 2.8665 0 0 1 -4.21438 0
1 854 -20.0655 0 2.8665 0 0 1 -3.90923 0
2 748 -17.199 0 0 0 0 1 -4.40564 0
1 749 -15.7657 1.43325 1.43325 0 0 1 -4.10202 0
1 779 -17.199 2.8665 0 0 0 1 -4.10747 0
1 887 -17.199 2.8665 2.8665 0 0 1 -4.1002 0
1 856 -17.199 0 2.8665 0 0 1 -4.2135 0
2 750 -14.3325 0 0 0 0 1 -4.4135 0
1 751 -12.8992 1.43325 1.43325 0 0 1 -4.10736 0
2 752 -11.466 0 0 0 0 1 -4.37491 0
2 781 -14.3325 2.8665 0 0 0 1 -4.37474 0
1 783 -11.466 2.8665 0 0 0 1 -4.04567 0
1 891 -11.466 2.8665 2.8665 0 0 1 -4.23938 0
1 889 -14.3325 2.8665 2.8665 0 0 1 -4.14762 0
1 860 -11.466 0 2.8665 0 0 1 -4.10208 0
1 858 -14.3325 0 2.8665 0 0 1 -4.13893 0
2 776 -21.4987 4.29975 1.43325 0 0 1 -3.50372 0
1 778 -18.6322 4.29975 1.43325 0 0 1 -4.048 0
1 916 -20.0655 5.733 2.8665 0 0 1 -3.95094 0
1 808 -20.0655 5.733 0 0 0 1 -3.99877 0
2 780 -15.7657 4.29975 1.43325 0 0 1 -4.38673 0
2 918 -17.199 5.733 2.8665 0 0 1 -4.39266 0
1 810 -17.199 5.733 0 0 0 1 -4.19919 0
1 782 -12.8992 4.29975 1.43325 0 0 1 -4.1174 0
1 922 -11.466 5.733 2.8665 0 0 1 -4.12767 0
2 920 -14.3325 5.733 2.8665 0 0 1 -4.36401 0
1 812 -14.3325 5.733 0 0 0 1 -4.08246 0
2 814 -11.466 5.733 0 0 0 1 -4.36275 0
1 946 -20.0655 8.5995 2.8665 0 0 1 -3.00305 0
1 807 -21.4987 7.16625 1.43325 0 0 1 -3.2074 0
1 809 -18.6322 7.16625 1.43325 0 0 1 -4.00907 0
2 838 -20.0655 8.5995 0 0 0 1 -3.30519 0
2 947 -17.199 8.5995 2.8665 0 0 1 -3.31364 0
2 811 -15.7657 7.16625 1.43325 0 0 1 -4.24571 0
1 839 -17.199 8.5995 0 0 0 1 -3.35729 0
1 949 -11.466 8.5995 2.8665 0 0 1 -3.21679 0
1 948 -14.3325 8.5995 2.8665 0 0 1 -3.17206 0
2 813 -12.8992 7.16625 1.43325 0 0 1 -4.25879 0
1 841 -11.466 8.5995 0 0 0 1 -3.38377 0
1 840 -14.3325 8.5995 0 0 0 1 -3.44172 0
1 314 -18.6322 -7.16625 4.29975 0 0 1 -3.49572 0
1 312 -21.4987 -7.16625 4.29975 0 0 1 -2.88847 0
2 316 -15.7657 -7.16625 4.29975 0 0 1 -3.72032 0
1 318 -12.8992 -7.16625 4.29975 0 0 1 -3.51574 0
1 406 -20.0655 -5.733 5.733 0 0 1 -3.37029 0
1 345 -18.6322 -4.29975 4.29975 0 0 1 -4.18829 0
1 343 -21.4987 -4.29975 4.29975 0 0 1 -3.35088 0
2 408 -17.199 -5.733 5.733 0 0 1 -3.83607 0
1 347 -15.7657 -4.29975 4.29975 0 0 1 -4.09307 0
1 412 -11.466 -5.733 5.733 0 0 1 -3.62549 0
1 410 -14.3325 -5.733 5.733 0 0 1 -3.54564 0
2 349 -12.8992 -4.29975 4.29975 0 0 1 -4.37894 0
2 437 -20.0655 -2.8665 5.733 0 0 1 -4.24816 0
2 376 -18.6322 -1.43325 4.29975 0 0 1 -4.39563 0
1 374 -21.4987 -1.43325 4.29975 0 0 1 -3.37018 0
2 439 -17.199 -2.8665 5.733 0 0 1 -4.37126 0
2 378 -15.7657 -1.43325 4.29975 0 0 1 -4.41671 0
1 443 -11.466 -2.8665 5.733 0 0 1 -4.14069 0
1 441 -14.3325 -2.8665 5.733 0 0 1 -4.08515 0
2 380 -12.8992 -1.43325 4.29975 0 0 1 -4.42782 0
1 993 -20.0655 2.8665 5.733 0 0 1 -3.89213 0
2 962 -20.0655 0 5.733 0 0 1 -4.24904 0
1 855 -18.6322 1.43325 4.29975 0 0 1 -4.09785 0
1 853 -21.4987 1.43325 4.29975 0 0 1 -3.47796 0
2 995 -17.199 2.8665 5.733 0 0 1 -4.34343 0
1 964 -17.199 0 5.733 0 0 1 -3.99336 0
1 857 -15.7657 1.43325 4.29975 0 0 1 -4.16966 0
1 999 -11.466 2.8665 5.733 0 0 1 -4.23024 0
1 997 -14.3325 2.8665 5.733 0 0 1 -4.0771 0
1 968 -11.466 0 5.733 0 0 1 -4.10517 0
2 966 -14.3325 0 5.733 0 0 1 -4.34523 0
1 859 -12.8992 1.43325 4.29975 0 0 1 -4.19707 0
1 1023 -20.0655 5.733 5.733 0 0 1 -3.41163 0
2 886 -18.6322 4.29975 4.29975 0 0 1 -4.3504 0
1 884 -21.4987 4.29975 4.29975 0 0 1 -3.30348 0
2 1024 -17.199 5.733 5.733 0 0 1 -3.81783 0
1 888 -15.7657 4.29975 4.29975 0 0 1 -4.09072 0
1 1026 -11.466 5.733 5.733 0 0 1 -3.53007 0
2 1025 -14.3325 5.733 5.733 0 0 1 -3.82237 0
1 890 -12.8992 4.29975 4.29975 0 0 1 -4.17963 0
1 917 -18.6322 7.16625 4.29975 0 0 1 -3.55156 0
1 915 -21.4987 7.16625 4.29975 0 0 1 -2.88756 0
1 919 -15.7657 7.16625 4.29975 0 0 1 -3.52486 0
2 921 -12.8992 7.16625 4.29975 0 0 1 -3.79593 0
1 407 -18.6322 -4.29975 7.16625 0 0 1 -3.55514 0
2 405 -21.4987 -4.29975 7.16625 0 0 1 -2.75567 0
1 409 -15.7657 -4.29975 7.16625 0 0 1 -3.56869 0
1 411 -12.8992 -4.29975 7.16625 0 0 1 -3.51659 0
1 467 -20.0655 -2.8665 8.5995 0 0 1 -3.05474 0
1 438 -18.6322 -1.43325 7.16625 0 0 1 -3.96188 0
1 436 -21.4987 -1.43325 7.16625 0 0 1 -3.20126 0
1 468 -17.199 -2.8665 8.5995 0 0 1 -3.14307 0
2 440 -15.7657 -1.43325 7.16625 0 0 1 -4.24826 0
2 470 -11.466 -2.8665 8.5995 0 0 1 -3.33037 0
2 469 -14.3325 -2.8665 8.5995 0 0 1 -3.28968 0
2 442 -12.8992 -1.43325 7.16625 0 0 1 -4.22954 0
1 1053 -20.0655 2.8665 8.5995 0 0 1 -3.08403 0
1 1038 -20.0655 0 8.5995 0 0 1 -3.16916 0
1 963 -18.6322 1.43325 7.16625 0 0 1 -3.97575 0
1 961 -21.4987 1.43325 7.16625 0 0 1 -3.20473 0
1 1054 -17.199 2.8665 8.5995 0 0 1 -3.16033 0
2 1039 -17.199 0 8.5995 0 0 1 -3.46802 0
2 965 -15.7657 1.43325 7.16625 0 0 1 -4.24248 0
1 1056 -11.466 2.8665 8.5995 0 0 1 -3.22511 0
1 1055 -14.3325 2.8665 8.5995 0 0 1 -3.28928 0
2 1041 -11.466 0 8.5995 0 0 1 -3.52022 0
1 1040 -14.3325 0 8.5995 0 0 1 -3.26128 0
1 967 -12.8992 1.43325 7.16625 0 0 1 -3.96432 0
2 994 -18.6322 4.29975 7.16625 0 0 1 -3.82257 0
2 992 -21.4987 4.29975 7.16625 0 0 1 -2.80807 0
2 996 -15.7657 4.29975 7.16625 0 0 1 -3.78834 0
1 998 -12.8992 4.29975 7.16625 0 0 1 -3.56617 0
1 5 -10.0328 -4.29975 -7.16625 0 0 1 -3.50303 0
2 6 -7.16625 -4.29975 -7.16625 0 0 1 -3.78095 0
1 7 -4.29975 -4.29975 -7.16625 0 0 1 -3.51531 0
1 8 -1.43325 -4.29975 -7.16625 0 0 1 -3.56714 0
1 25 -10.0328 -1.43325 -7.16625 0 0 1 -4.05356 0
2 26 -8.5995 -2.8665 -8.5995 0 0 1 -3.30992 0
1 27 -7.16625 -1.43325 -7.16625 0 0 1 -3.98092 0
1 28 -5.733 -2.8665 -8.5995 0 0 1 -3.22359 0
1 29 -4.29975 -1.43325 -7.16625 0 0 1 -4.04981 0
1 30 -2.8665 -2.8665 -8.5995 0 0 1 -3.19458 0
1 31 -1.43325 -1.43325 -7.16625 0 0 1 -3.96411 0
1 490 -10.0328 1.43325 -7.16625 0 0 1 -3.91451 0
1 491 -8.5995 0 -8.5995 0 0 1 -3.43936 0
1 522 -8.5995 2.8665 -8.5995 0 0 1 -3.1354 0
1 492 -7.16625 1.43325 -7.16625 0 0 1 -4.01017 0
1 493 -5.733 0 -8.5995 0 0 1 -3.42337 0
1 494 -4.29975 1.43325 -7.16625 0 0 1 -3.94982 0
2 524 -5.733 2.8665 -8.5995 0 0 1 -3.289 0
1 495 -2.8665 0 -8.5995 0 0 1 -3.42699 0
2 496 -1.43325 1.43325 -7.16625 0 0 1 -4.2359 0
1 526 -2.8665 2.8665 -8.5995 0 0 1 -3.18098 0
2 521 -10.0328 4.29975 -7.16625 0 0 1 -3.78831 0
2 523 -7.16625 4.29975 -7.16625 0 0 1 -3.7872 0
2 525 -4.29975 4.29975 -7.16625 0 0 1 -3.7725 0
1 527 -1.43325 4.29975 -7.16625 0 0 1 -3.47119 0
1 52 -10.0328 -7.16625 -4.29975 0 0 1 -3.59706 0
2 54 -4.29975 -7.16625 -4.29975 0 0 1 -3.85526 0
1 53 -7.16625 -7.16625 -4.29975 0 0 1 -3.57363 0
2 55 -1.43325 -7.16625 -4.29975 0 0 1 -3.83152 0
2 73 -8.5995 -5.733 -5.733 0 0 1 -3.82132 0
1 72 -10.0328 -4.29975 -4.29975 0 0 1 -4.16312 0
2 76 -4.29975 -4.29975 -4.29975 0 0 1 -4.38046 0
1 75 -5.733 -5.733 -5.733 0 0 1 -3.58105 0
1 74 -7.16625 -4.29975 -4.29975 0 0 1 -4.12112 0
1 78 -1.43325 -4.29975 -4.29975 0 0 1 -4.1502 0
1 77 -2.8665 -5.733 -5.733 0 0 1 -3.56216 0
1 104 -8.5995 -2.8665 -5.733 0 0 1 -4.0631 0
1 103 -10.0328 -1.43325 -4.29975 0 0 1 -4.17469 0
1 107 -4.29975 -1.43325 -4.29975 0 0 1 -4.1752 0
1 106 -5.733 -2.8665 -5.733 0 0 1 -4.15232 0
1 105 -7.16625 -1.43325 -4.29975 0 0 1 -4.17771 0
1 109 -1.43325 -1.43325 -4.29975 0 0 1 -4.15008 0
2 108 -2.8665 -2.8665 -5.733 0 0 1 -4.40734 0
2 584 -8.5995 2.8665 -5.733 0 0 1 -4.36818 0
2 552 -10.0328 1.43325 -4.29975 0 0 1 -4.37174 0
1 553 -8.5995 0 -5.733 0 0 1 -4.1623 0
2 586 -5.733 2.8665 -5.733 0 0 1 -4.3763 0
1 556 -4.29975 1.43325 -4.29975 0 0 1 -4.22022 0
1 555 -5.733 0 -5.733 0 0 1 -4.11519 0
1 554 -7.16625 1.43325 -4.29975 0 0 1 -4.12493 0
2 588 -2.8665 2.8665 -5.733 0 0 1 -4.40678 0
1 558 -1.43325 1.43325 -4.29975 0 0 1 -4.14791 0
2 557 -2.8665 0 -5.733 0 0 1 -4.41015 0
2 615 -8.5995 5.733 -5.733 0 0 1 -3.80676 0
1 583 -10.0328 4.29975 -4.29975 0 0 1 -4.09463 0
1 617 -5.733 5.733 -5.733 0 0 1 -3.56247 0
1 587 -4.29975 4.29975 -4.29975 0 0 1 -4.11408 0
2 585 -7.16625 4.29975 -4.29975 0 0 1 -4.35345 0
1 619 -2.8665 5.733 -5.733 0 0 1 -3.54431 0
1 589 -1.43325 4.29975 -4.29975 0 0 1 -4.17948 0
1 614 -10.0328 7.16625 -4.29975 0 0 1 -3.5242 0
1 618 -4.29975 7.16625 -4.29975 0 0 1 -3.59561 0
1 616 -7.16625 7.16625 -4.29975 0 0 1 -3.5551 0
1 620 -1.43325 7.16625 -4.29975 0 0 1 -3.59595 0
1 135 -8.5995 -8.5995 -2.8665 0 0 1 -3.2482 0
1 134 -10.0328 -7.16625 -1.43325 0 0 1 -3.99499 0
2 138 -4.29975 -7.16625 -1.43325 0 0 1 -4.25477 0
1 137 -5.733 -8.5995 -2.8665 0 0 1 -3.21394 0
1 136 -7.16625 -7.16625 -1.43325 0 0 1 -3.99991 0
1 140 -1.43325 -7.16625 -1.43325 0 0 1 -3.93256 0
1 139 -2.8665 -8.5995 -2.8665 0 0 1 -3.25424 0
2 166 -8.5995 -5.733 -2.8665 0 0 1 -4.4181 0
1 165 -10.0328 -4.29975 -1.43325 0 0 1 -4.19039 0
1 169 -4.29975 -4.29975 -1.43325 0 0 1 -4.14621 0
1 168 -5.733 -5.733 -2.8665 0 0 1 -4.14034 0
1 167 -7.16625 -4.29975 -1.43325 0 0 1 -4.18179 0
1 171 -1.43325 -4.29975 -1.43325 0 0 1 -4.11864 0
1 170 -2.8665 -5.733 -2.8665 0 0 1 -4.21115 0
2 197 -8.5995 -2.8665 -2.8665 0 0 1 -4.41331 0
1 196 -10.0328 -1.43325 -1.43325 0 0 1 -4.18541 0
1 200 -4.29975 -1.43325 -1.43325 0 0 1 -4.13385 0
2 199 -5.733 -2.8665 -2.8665 0 0 1 -4.4029 0
2 198 -7.16625 -1.43325 -1.43325 0 0 1 -4.37117 0
2 202 -1.43325 -1.43325 -1.43325 0 0 1 -4.39212 0
1 201 -2.8665 -2.8665 -2.8665 0 0 1 -4.11221 0
2 677 -8.5995 2.8665 -2.8665 0 0 1 -4.41183 0
1 646 -8.5995 0 -2.8665 0 0 1 -4.1304 0
1 645 -10.0328 1.43325 -1.43325 0 0 1 -4.09675 0
1 679 -5.733 2.8665 -2.8665 0 0 1 -4.02999 0
1 649 -4.29975 1.43325 -1.43325 0 0 1 -4.18218 0
2 648 -5.733 0 -2.8665 0 0 1 -4.38567 0
1 647 -7.16625 1.43325 -1.43325 0 0 1 -4.14731 0
2 681 -2.8665 2.8665 -2.8665 0 0 1 -4.40418 0
1 651 -1.43325 1.43325 -1.43325 0 0 1 -4.14458 0
1 650 -2.8665 0 -2.8665 0 0 1 -4.11865 0
2 708 -8.5995 5.733 -2.8665 0 0 1 -4.38568 0
1 676 -10.0328 4.29975 -1.43325 0 0 1 -4.16168 0
1 710 -5.733 5.733 -2.8665 0 0 1 -4.10932 0
1 680 -4.29975 4.29975 -1.43325 0 0 1 -4.18687 0
1 678 -7.16625 4.29975 -1.43325 0 0 1 -4.13433 0
2 712 -2.8665 5.733 -2.8665 0 0 1 -4.3912 0
2 682 -1.43325 4.29975 -1.43325 0 0 1 -4.38128 0
1 734 -8.5995 8.5995 -2.8665 0 0 1 -3.17981 0
2 707 -10.0328 7.16625 -1.43325 0 0 1 -4.23906 0
2 735 -5.733 8.5995 -2.8665 0 0 1 -3.33607 0
1 711 -4.29975 7.16625 -1.43325 0 0 1 -3.99026 0
1 709 -7.16625 7.16625 -1.43325 0 0 1 -4.00573 0
2 736 -2.8665 8.5995 -2.8665 0 0 1 -3.368 0
1 713 -1.43325 7.16625 -1.43325 0 0 1 -3.9465 0
2 227 -10.0328 -7.16625 1.43325 0 0 1 -4.25406 0
1 228 -8.5995 -8.5995 0 0 0 1 -3.32101 0
2 321 -8.5995 -8.5995 2.8665 0 0 1 -3.2932 0
1 229 -7.16625 -7.16625 1.43325 0 0 1 -4.00382 0
2 230 -5.733 -8.5995 0 0 0 1 -3.48864 0
1 231 -4.29975 -7.16625 1.43325 0 0 1 -3.99907 0
1 323 -5.733 -8.5995 2.8665 0 0 1 -3.13823 0
1 232 -2.8665 -8.5995 0 0 0 1 -3.35638 0
1 233 -1.43325 -7.16625 1.43325 0 0 1 -3.96294 0
1 325 -2.8665 -8.5995 2.8665 0 0 1 -3.25747 0
1 352 -8.5995 -5.733 2.8665 0 0 1 -4.08112 0
2 258 -10.0328 -4.29975 1.43325 0 0 1 -4.41257 0
1 259 -8.5995 -5.733 0 0 0 1 -4.21918 0
2 354 -5.733 -5.733 2.8665 0 0 1 -4.3669 0
1 260 -7.16625 -4.29975 1.43325 0 0 1 -4.17552 0
1 261 -5.733 -5.733 0 0 0 1 -4.1031 0
1 262 -4.29975 -4.29975 1.43325 0 0 1 -4.18088 0
1 356 -2.8665 -5.733 2.8665 0 0 1 -4.03974 0
1 263 -2.8665 -5.733 0 0 0 1 -4.20954 0
2 264 -1.43325 -4.29975 1.43325 0 0 1 -4.38178 0
2 383 -8.5995 -2.8665 2.8665 0 0 1 -4.41472 0
1 290 -8.5995 -2.8665 0 0 0 1 -4.13222 0
1 289 -10.0328 -1.43325 1.43325 0 0 1 -4.10446 0
1 385 -5.733 -2.8665 2.8665 0 0 1 -4.06774 0
1 293 -4.29975 -1.43325 1.43325 0 0 1 -4.14044 0
2 292 -5.733 -2.8665 0 0 0 1 -4.41057 0
1 291 -7.16625 -1.43325 1.43325 0 0 1 -4.1399 0
2 387 -2.8665 -2.8665 2.8665 0 0 1 -4.37252 0
2 295 -1.43325 -1.43325 1.43325 0 0 1 -4.37828 0
2 294 -2.8665 -2.8665 0 0 0 1 -4.40009 0
2 862 -8.5995 0 2.8665 0 0 1 -4.38888 0
2 753 -10.0328 1.43325 1.43325 0 0 1 -4.40111 0
1 754 -8.5995 0 0 0 0 1 -4.11501 0
1 893 -8.5995 2.8665 2.8665 0 0 1 -4.14349 0
1 785 -8.5995 2.8665 0 0 0 1 -4.16743 0
1 864 -5.733 0 2.8665 0 0 1 -4.0732 0
2 755 -7.16625 1.43325 1.43325 0 0 1 -4.41094 0
2 756 -5.733 0 0 0 0 1 -4.39161 0
2 757 -4.29975 1.43325 1.43325 0 0 1 -4.37676 0
2 895 -5.733 2.8665 2.8665 0 0 1 -4.36805 0
2 787 -5.733 2.8665 0 0 0 1 -4.39551 0
2 866 -2.8665 0 2.8665 0 0 1 -4.38422 0
1 758 -2.8665 0 0 0 0 1 -4.07795 0
1 759 -1.43325 1.43325 1.43325 0 0 1 -4.14933 0
1 789 -2.8665 2.8665 0 0 0 1 -4.16821 0
1 897 -2.8665 2.8665 2.8665 0 0 1 -4.09575 0
1 816 -8.5995 5.733 0 0 0 1 -4.13998 0
2 784 -10.0328 4.29975 1.43325 0 0 1 -4.41828 0
1 924 -8.5995 5.733 2.8665 0 0 1 -4.11936 0
1 818 -5.733 5.733 0 0 0 1 -4.19822 0
2 786 -7.16625 4.29975 1.43325 0 0 1 -4.38905 0
1 788 -4.29975 4.29975 1.43325 0 0 1 -4.09443 0
1 926 -5.733 5.733 2.8665 0 0 1 -4.17834 0
1 820 -2.8665 5.733 0 0 0 1 -4.11221 0
1 790 -1.43325 4.29975 1.43325 0 0 1 -4.13997 0
1 928 -2.8665 5.733 2.8665 0 0 1 -4.17949 0
1 842 -8.5995 8.5995 0 0 0 1 -3.41505 0
1 815 -10.0328 7.16625 1.43325 0 0 1 -3.93572 0
2 950 -8.5995 8.5995 2.8665 0 0 1 -3.30007 0
1 843 -5.733 8.5995 0 0 0 1 -3.36842 0
2 819 -4.29975 7.16625 1.43325 0 0 1 -4.24782 0
1 817 -7.16625 7.16625 1.43325 0 0 1 -3.91848 0
1 951 -5.733 8.5995 2.8665 0 0 1 -3.21478 0
2 844 -2.8665 8.5995 0 0 0 1 -3.51773 0
1 821 -1.43325 7.16625 1.43325 0 0 1 -4.01137 0
1 952 -2.8665 8.5995 2.8665 0 0 1 -3.23344 0
1 320 -10.0328 -7.16625 4.29975 0 0 1 -3.56526 0
1 324 -4.29975 -7.16625 4.29975 0 0 1 -3.55392 0
1 322 -7.16625 -7.16625 4.29975 0 0 1 -3.59973 0
2 326 -1.43325 -7.16625 4.29975 0 0 1 -3.77605 0
1 414 -8.5995 -5.733 5.733 0 0 1 -3.63523 0
1 351 -10.0328 -4.29975 4.29975 0 0 1 -4.13158 0
1 416 -5.733 -5.733 5.733 0 0 1 -3.53619 0
1 355 -4.29975 -4.29975 4.29975 0 0 1 -4.16285 0
1 353 -7.16625 -4.29975 4.29975 0 0 1 -4.20989 0
2 418 -2.8665 -5.733 5.733 0 0 1 -3.78315 0
2 357 -1.43325 -4.29975 4.29975 0 0 1 -4.37282 0
1 445 -8.5995 -2.8665 5.733 0 0 1 -4.14885 0
1 382 -10.0328 -1.43325 4.29975 0 0 1 -4.21332 0
1 447 -5.733 -2.8665 5.733 0 0 1 -4.20302 0
1 386 -4.29975 -1.43325 4.29975 0 0 1 -4.23417 0
1 384 -7.16625 -1.43325 4.29975 0 0 1 -4.12564 0
1 449 -2.8665 -2.8665 5.733 0 0 1 -4.04571 0
1 388 -1.43325 -1.43325 4.29975 0 0 1 -4.10117 0
1 861 -10.0328 1.43325 4.29975 0 0 1 -4.14152 0
1 1001 -8.5995 2.8665 5.733 0 0 1 -4.13049 0
2 970 -8.5995 0 5.733 0 0 1 -4.41272 0
2 863 -7.16625 1.43325 4.29975 0 0 1 -4.37089 0
1 865 -4.29975 1.43325 4.29975 0 0 1 -4.14045 0
1 1003 -5.733 2.8665 5.733 0 0 1 -4.12585 0
1 972 -5.733 0 5.733 0 0 1 -4.20916 0
1 867 -1.43325 1.43325 4.29975 0 0 1 -4.15711 0
2 1005 -2.8665 2.8665 5.733 0 0 1 -4.38571 0
1 974 -2.8665 0 5.733 0 0 1 -4.14854 0
1 892 -10.0328 4.29975 4.29975 0 0 1 -4.19629 0
2 1027 -8.5995 5.733 5.733 0 0 1 -3.7974 0
1 1028 -5.733 5.733 5.733 0 0 1 -3.52849 0
1 894 -7.16625 4.29975 4.29975 0 0 1 -4.04499 0
1 896 -4.29975 4.29975 4.29975 0 0 1 -4.2026 0
2 1029 -2.8665 5.733 5.733 0 0 1 -3.81082 0
1 898 -1.43325 4.29975 4.29975 0 0 1 -4.13973 0
1 923 -10.0328 7.16625 4.29975 0 0 1 -3.52185 0
1 927 -4.29975 7.16625 4.29975 0 0 1 -3.51525 0
2 925 -7.16625 7.16625 4.29975 0 0 1 -3.77089 0
1 929 -1.43325 7.16625 4.29975 0 0 1 -3.61431 0
1 413 -10.0328 -4.29975 7.16625 0 0 1 -3.61346 0
1 417 -4.29975 -4.29975 7.16625 0 0 1 -3.60004 0
1 415 -7.16625 -4.29975 7.16625 0 0 1 -3.54919 0
1 419 -1.43325 -4.29975 7.16625 0 0 1 -3.50212 0
1 471 -8.5995 -2.8665 8.5995 0 0 1 -3.1519 0
1 444 -10.0328 -1.43325 7.16625 0 0 1 -3.94539 0
2 472 -5.733 -2.8665 8.5995 0 0 1 -3.3094 0
1 448 -4.29975 -1.43325 7.16625 0 0 1 -3.99148 0
2 446 -7.16625 -1.43325 7.16625 0 0 1 -4.22942 0
2 473 -2.8665 -2.8665 8.5995 0 0 1 -3.3525 0
1 450 -1.43325 -1.43325 7.16625 0 0 1 -4.00433 0
1 1057 -8.5995 2.8665 8.5995 0 0 1 -3.23975 0
2 1042 -8.5995 0 8.5995 0 0 1 -3.51976 0
1 969 -10.0328 1.43325 7.16625 0 0 1 -4.05944 0
1 1058 -5.733 2.8665 8.5995 0 0 1 -3.25875 0
1 1043 -5.733 0 8.5995 0 0 1 -3.36757 0
1 973 -4.29975 1.43325 7.16625 0 0 1 -3.97317 0
1 971 -7.16625 1.43325 7.16625 0 0 1 -3.9105 0
1 1059 -2.8665 2.8665 8.5995 0 0 1 -3.2167 0
1 1044 -2.8665 0 8.5995 0 0 1 -3.41849 0
2 975 -1.43325 1.43325 7.16625 0 0 1 -4.24634 0
1 1000 -10.0328 4.29975 7.16625 0 0 1 -3.55173 0
2 1004 -4.29975 4.29975 7.16625 0 0 1 -3.80479 0
2 1002 -7.16625 4.29975 7.16625 0 0 1 -3.80579 0
2 1006 -1.43325 4.29975 7.16625 0 0 1 -3.78463 0
2 9 1.43325 -4.29975 -7.16625 0 0 1 -3.77158 0
1 10 4.29975 -4.29975 -7.16625 0 0 1 -3.57005 0
1 11 7.16625 -4.29975 -7.16625 0 0 1 -3.51919 0
2 12 10.0328 -4.29975 -7.16625 0 0 1 -3.79635 0
2 32 0 -2.8665 -8.5995 0 0 1 -3.289 0
2 33 1.43325 -1.43325 -7.16625 0 0 1 -4.24379 0
1 34 2.8665 -2.8665 -8.5995 0 0 1 -3.18182 0
1 35 4.29975 -1.43325 -7.16625 0 0 1 -4.00307 0
1 36 5.733 -2.8665 -8.5995 0 0 1 -3.28324 0
1 37 7.16625 -1.43325 -7.16625 0 0 1 -4.00712 0
1 38 8.5995 -2.8665 -8.5995 0 0 1 -3.18552 0
2 39 10.0328 -1.43325 -7.16625 0 0 1 -4.25654 0
2 40 11.466 -2.8665 -8.5995 0 0 1 -3.2657 0
1 497 0 0 -8.5995 0 0 1 -3.40887 0
2 498 1.43325 1.43325 -7.16625 0 0 1 -4.2853 0
1 499 2.8665 0 -8.5995 0 0 1 -3.36576 0
1 528 0 2.8665 -8.5995 0 0 1 -3.20136 0
2 530 2.8665 2.8665 -8.5995 0 0 1 -3.28836 0
1 500 4.29975 1.43325 -7.16625 0 0 1 -4.00111 0
1 501 5.733 0 -8.5995 0 0 1 -3.39106 0
1 502 7.16625 1.43325 -7.16625 0 0 1 -3.98606 0
2 532 5.733 2.8665 -8.5995 0 0 1 -3.35338 0
2 503 8.5995 0 -8.5995 0 0 1 -3.49884 0
2 504 10.0328 1.43325 -7.16625 0 0 1 -4.23874 0
2 505 11.466 0 -8.5995 0 0 1 -3.4674 0
1 534 8.5995 2.8665 -8.5995 0 0 1 -3.15718 0
1 536 11.466 2.8665 -8.5995 0 0 1 -3.23824 0
2 529 1.43325 4.29975 -7.16625 0 0 1 -3.79062 0
1 531 4.29975 4.29975 -7.16625 0 0 1 -3.53758 0
1 533 7.16625 4.29975 -7.16625 0 0 1 -3.58995 0
1 535 10.0328 4.29975 -7.16625 0 0 1 -3.55189 0
2 56 1.43325 -7.16625 -4.29975 0 0 1 -3.82735 0
1 58 7.16625 -7.16625 -4.29975 0 0 1 -3.44565 0
2 57 4.29975 -7.16625 -4.29975 0 0 1 -3.79863 0
2 59 10.0328 -7.16625 -4.29975 0 0 1 -3.79584 0
1 81 2.8665 -5.733 -5.733 0 0 1 -3.52322 0
1 80 1.43325 -4.29975 -4.29975 0 0 1 -4.0589 0
1 79 0 -5.733 -5.733 0 0 1 -3.57318 0
2 84 7.16625 -4.29975 -4.29975 0 0 1 -4.36172 0
2 83 5.733 -5.733 -5.733 0 0 1 -3.8133 0
1 82 4.29975 -4.29975 -4.29975 0 0 1 -4.14103 0
2 86 10.0328 -4.29975 -4.29975 0 0 1 -4.41001 0
2 85 8.5995 -5.733 -5.733 0 0 1 -3.77613 0
1 87 11.466 -5.733 -5.733 0 0 1 -3.52764 0
2 112 2.8665 -2.8665 -5.733 0 0 1 -4.38895 0
2 111 1.43325 -1.43325 -4.29975 0 0 1 -4.39685 0
2 110 0 -2.8665 -5.733 0 0 1 -4.4011 0
1 115 7.16625 -1.43325 -4.29975 0 0 1 -4.09549 0
1 114 5.733 -2.8665 -5.733 0 0 1 -4.13533 0
1 113 4.29975 -1.43325 -4.29975 0 0 1 -4.20693 0
2 117 10.0328 -1.43325 -4.29975 0 0 1 -4.40434 0
1 116 8.5995 -2.8665 -5.733 0 0 1 -4.13014 0
1 118 11.466 -2.8665 -5.733 0 0 1 -4.1698 0
1 592 2.8665 2.8665 -5.733 0 0 1 -4.04373 0
2 561 2.8665 0 -5.733 0 0 1 -4.37079 0
2 560 1.43325 1.43325 -4.29975 0 0 1 -4.40515 0
1 559 0 0 -5.733 0 0 1 -4.1037 0
1 590 0 2.8665 -5.733 0 0 1 -4.18555 0
2 594 5.733 2.8665 -5.733 0 0 1 -4.40139 0
1 564 7.16625 1.43325 -4.29975 0 0 1 -4.22683 0
1 563 5.733 0 -5.733 0 0 1 -4.07105 0
1 562 4.29975 1.43325 -4.29975 0 0 1 -4.13433 0
1 598 11.466 2.8665 -5.733 0 0 1 -4.08639 0
2 596 8.5995 2.8665 -5.733 0 0 1 -4.37515 0
1 567 11.466 0 -5.733 0 0 1 -4.16496 0
1 566 10.0328 1.43325 -4.29975 0 0 1 -4.14901 0
2 565 8.5995 0 -5.733 0 0 1 -4.40992 0
2 623 2.8665 5.733 -5.733 0 0 1 -3.83067 0
1 591 1.43325 4.29975 -4.29975 0 0 1 -4.13022 0
1 621 0 5.733 -5.733 0 0 1 -3.58312 0
2 625 5.733 5.733 -5.733 0 0 1 -3.84067 0
1 595 7.16625 4.29975 -4.29975 0 0 1 -4.15251 0
1 593 4.29975 4.29975 -4.29975 0 0 1 -4.16839 0
2 629 11.466 5.733 -5.733 0 0 1 -3.81728 0
1 627 8.5995 5.733 -5.733 0 0 1 -3.45951 0
1 597 10.0328 4.29975 -4.29975 0 0 1 -4.13618 0
1 622 1.43325 7.16625 -4.29975 0 0 1 -3.54565 0
2 626 7.16625 7.16625 -4.29975 0 0 1 -3.76818 0
1 624 4.29975 7.16625 -4.29975 0 0 1 -3.54629 0
1 628 10.0328 7.16625 -4.29975 0 0 1 -3.46792 0
2 143 2.8665 -8.5995 -2.8665 0 0 1 -3.2226 0
2 142 1.43325 -7.16625 -1.43325 0 0 1 -4.26443 0
1 141 0 -8.5995 -2.8665 0 0 1 -3.15044 0
2 146 7.16625 -7.16625 -1.43325 0 0 1 -4.26367 0
1 145 5.733 -8.5995 -2.8665 0 0 1 -3.20703 0
2 144 4.29975 -7.16625 -1.43325 0 0 1 -4.25788 0
2 148 10.0328 -7.16625 -1.43325 0 0 1 -4.26817 0
1 147 8.5995 -8.5995 -2.8665 0 0 1 -3.24892 0
1 149 11.466 -8.5995 -2.8665 0 0 1 -3.22296 0
1 174 2.8665 -5.733 -2.8665 0 0 1 -4.1641 0
2 173 1.43325 -4.29975 -1.43325 0 0 1 -4.39503 0
1 172 0 -5.733 -2.8665 0 0 1 -4.21076 0
1 177 7.16625 -4.29975 -1.43325 0 0 1 -4.06799 0
1 176 5.733 -5.733 -2.8665 0 0 1 -4.12127 0
1 175 4.29975 -4.29975 -1.43325 0 0 1 -4.17197 0
1 179 10.0328 -4.29975 -1.43325 0 0 1 -4.12786 0
1 178 8.5995 -5.733 -2.8665 0 0 1 -4.11258 0
2 180 11.466 -5.733 -2.8665 0 0 1 -4.37724 0
1 205 2.8665 -2.8665 -2.8665 0 0 1 -4.18984 0
2 204 1.43325 -1.43325 -1.43325 0 0 1 -4.4238 0
1 203 0 -2.8665 -2.8665 0 0 1 -4.1416 0
2 208 7.16625 -1.43325 -1.43325 0 0 1 -4.36482 0
1 207 5.733 -2.8665 -2.8665 0 0 1 -4.14367 0
1 206 4.29975 -1.43325 -1.43325 0 0 1 -4.09653 0
2 210 10.0328 -1.43325 -1.43325 0 0 1 -4.40102 0
1 209 8.5995 -2.8665 -2.8665 0 0 1 -4.20869 0
1 211 11.466 -2.8665 -2.8665 0 0 1 -4.13876 0
1 685 2.8665 2.8665 -2.8665 0 0 1 -4.15444 0
1 654 2.8665 0 -2.8665 0 0 1 -4.13848 0
1 653 1.43325 1.43325 -1.43325 0 0 1 -4.12313 0
1 683 0 2.8665 -2.8665 0 0 1 -4.20266 0
1 652 0 0 -2.8665 0 0 1 -4.1922 0
1 687 5.733 2.8665 -2.8665 0 0 1 -4.13216 0
1 657 7.16625 1.43325 -1.43325 0 0 1 -4.14712 0
2 656 5.733 0 -2.8665 0 0 1 -4.38021 0
2 655 4.29975 1.43325 -1.43325 0 0 1 -4.39659 0
2 691 11.466 2.8665 -2.8665 0 0 1 -4.36268 0
1 689 8.5995 2.8665 -2.8665 0 0 1 -4.07361 0
1 660 11.466 0 -2.8665 0 0 1 -4.09216 0
1 659 10.0328 1.43325 -1.43325 0 0 1 -4.09906 0
2 658 8.5995 0 -2.8665 0 0 1 -4.41149 0
2 716 2.8665 5.733 -2.8665 0 0 1 -4.39562 0
1 684 1.43325 4.29975 -1.43325 0 0 1 -4.05016 0
1 714 0 5.733 -2.8665 0 0 1 -4.10367 0
2 718 5.733 5.733 -2.8665 0 0 1 -4.40276 0
1 688 7.16625 4.29975 -1.43325 0 0 1 -4.13439 0
2 686 4.29975 4.29975 -1.43325 0 0 1 -4.38343 0
2 722 11.466 5.733 -2.8665 0 0 1 -4.39028 0
2 720 8.5995 5.733 -2.8665 0 0 1 -4.36834 0
2 690 10.0328 4.29975 -1.43325 0 0 1 -4.39519 0
2 738 2.8665 8.5995 -2.8665 0 0 1 -3.31263 0
2 715 1.43325 7.16625 -1.43325 0 0 1 -4.21171 0
1 737 0 8.5995 -2.8665 0 0 1 -3.16866 0