ITEM: TIMESTEP
0
ITEM: NUMBER OF ATOMS
1243
ITEM: BOX BOUNDS pp pp pp
-2.5000000000000000e+01 2.5000000000000000e+01
-2.5000000000000000e+01 2.5000000000000000e+01
-2.5000000000000000e+01 2.5000000000000000e+01
ITEM: ATOMS type id x y z c_outsp[1] c_outsp[2] c_outsp[3] c_peAtom c_keAtom
2 1 -1.43325 -7.16625 -12.8992 0 0 1 -3.16466 0
1 2 1.43325 -7.16625 -12.8992 0 0 1 -3.0898 0
2 3 -4.29975 -4.29975 -12.8992 0 0 1 -3.44236 0
2 4 -1.43325 -4.29975 -12.8992 0 0 1 -3.9338 0
1 5 1.43325 -4.29975 -12.8992 0 0 1 -3.58699 0
2 6 4.29975 -4.29975 -12.8992 0 0 1 -3.42632 0
1 7 -7.16625 -1.43325 -12.8992 0 0 1 -3.1093 0
1 8 -4.29975 -1.43325 -12.8992 0 0 1 -3.66942 0
2 9 -2.8665 -2.8665 -14.3325 0 0 1 -3.11808 0
1 10 -1.43325 -1.43325 -12.8992 0 0 1 -3.95028 0
1 11 0 -2.8665 -14.3325 0 0 1 -3.18751 0
2 12 1.43325 -1.43325 -12.8992 0 0 1 -4.21187 0
1 13 2.8665 -2.8665 -14.3325 0 0 1 -3.09289 0
1 14 4.29975 -1.43325 -12.8992 0 0 1 -3.60042 0
2 15 7.16625 -1.43325 -12.8992 0 0 1 -3.13744 0
1 16 -7.16625 1.43325 -12.8992 0 0 1 -3.08302 0
1 17 -4.29975 1.43325 -12.8992 0 0 1 -3.74319 0
2 18 -2.8665 0 -14.3325 0 0 1 -3.36667 0
1 19 -1.43325 1.43325 -12.8992 0 0 1 -4.033 0
2 26 -2.8665 2.8665 -14.3325 0 0 1 -3.15174 0
2 20 0 0 -14.3325 0 0 1 -3.51767 0
1 21 1.43325 1.43325 -12.8992 0 0 1 -3.94516 0
1 22 2.8665 0 -14.3325 0 0 1 -3.18461 0
1 28 0 2.8665 -14.3325 0 0 1 -3.16222 0
1 30 2.8665 2.8665 -14.3325 0 0 1 -3.12058 0
1 23 4.29975 1.43325 -12.8992 0 0 1 -3.68556 0
2 24 7.16625 1.43325 -12.8992 0 0 1 -3.14928 0
1 25 -4.29975 4.29975 -12.8992 0 0 1 -3.29148 0
1 27 -1.43325 4.29975 -12.8992 0 0 1 -3.6922 0
1 29 1.43325 4.29975 -12.8992 0 0 1 -3.71141 0
1 31 4.29975 4.29975 -12.8992 0 0 1 -3.31714 0
2 32 -1.43325 7.16625 -12.8992 0 0 1 -3.09443 0
2 33 1.43325 7.16625 -12.8992 0 0 1 -3.10897 0
2 34 -4.29975 -10.0328 -10.0328 0 0 1 -3.1381 0
1 35 -1.43325 -10.0328 -10.0328 0 0 1 -3.55396 0
1 36 1.43325 -10.0328 -10.0328 0 0 1 -3.58704 0
1 37 4.29975 -10.0328 -10.0328 0 0 1 -3.0962 0
1 38 -7.16625 -7.16625 -10.0328 0 0 1 -3.28645 0
2 39 -4.29975 -7.16625 -10.0328 0 0 1 -4.13682 0
2 40 -2.8665 -8.5995 -11.466 0 0 1 -3.34902 0
2 41 -1.43325 -7.16625 -10.0328 0 0 1 -4.35401 0
1 42 0 -8.5995 -11.466 0 0 1 -3.55867 0
1 43 1.43325 -7.16625 -10.0328 0 0 1 -4.08036 0
1 44 2.8665 -8.5995 -11.466 0 0 1 -3.20906 0
1 45 4.29975 -7.16625 -10.0328 0 0 1 -3.85495 0
1 46 7.16625 -7.16625 -10.0328 0 0 1 -3.28578 0
2 47 -10.0328 -4.29975 -10.0328 0 0 1 -3.13322 0
1 48 -7.16625 -4.29975 -10.0328 0 0 1 -3.86111 0
1 49 -5.733 -5.733 -11.466 0 0 1 -3.3012 0
2 50 -4.29975 -4.29975 -10.0328 0 0 1 -4.38599 0
1 51 -2.8665 -5.733 -11.466 0 0 1 -3.76124 0
1 52 -1.43325 -4.29975 -10.0328 0 0 1 -4.02862 0
1 53 0 -5.733 -11.466 0 0 1 -4.01699 0
2 54 1.43325 -4.29975 -10.0328 0 0 1 -4.36982 0
2 55 2.8665 -5.733 -11.466 0 0 1 -4.10467 0
2 56 4.29975 -4.29975 -10.0328 0 0 1 -4.38796 0
2 57 5.733 -5.733 -11.466 0 0 1 -3.43022 0
1 58 7.16625 -4.29975 -10.0328 0 0 1 -3.80532 0
2 59 10.0328 -4.29975 -10.0328 0 0 1 -3.08688 0
1 60 -10.0328 -1.43325 -10.0328 0 0 1 -3.53449 0
1 61 -8.5995 -2.8665 -11.466 0 0 1 -3.24158 0
1 62 -7.16625 -1.43325 -10.0328 0 0 1 -4.16497 0
1 63 -5.733 -2.8665 -11.466 0 0 1 -3.8672 0
2 64 -4.29975 -1.43325 -10.0328 0 0 1 -4.41016 0
2 65 -2.8665 -2.8665 -11.466 0 0 1 -4.3388 0
1 66 -1.43325 -1.43325 -10.0328 0 0 1 -4.20256 0
1 67 0 -2.8665 -11.466 0 0 1 -4.0859 0
1 68 1.43325 -1.43325 -10.0328 0 0 1 -4.04828 0
1 69 2.8665 -2.8665 -11.466 0 0 1 -4.11911 0
2 70 4.29975 -1.43325 -10.0328 0 0 1 -4.39572 0
1 71 5.733 -2.8665 -11.466 0 0 1 -3.77254 0
2 72 7.16625 -1.43325 -10.0328 0 0 1 -4.34477 0
2 73 8.5995 -2.8665 -11.466 0 0 1 -3.37188 0
1 74 10.0328 -1.43325 -10.0328 0 0 1 -3.49327 0
1 75 -10.0328 1.43325 -10.0328 0 0 1 -3.56368 0
2 76 -8.5995 0 -11.466 0 0 1 -3.82699 0
1 77 -7.16625 1.43325 -10.0328 0 0 1 -4.19518 0
2 91 -8.5995 2.8665 -11.466 0 0 1 -3.46593 0
1 78 -5.733 0 -11.466 0 0 1 -4.02849 0
1 79 -4.29975 1.43325 -10.0328 0 0 1 -4.16902 0
1 93 -5.733 2.8665 -11.466 0 0 1 -3.91008 0
1 80 -2.8665 0 -11.466 0 0 1 -4.10667 0
1 81 -1.43325 1.43325 -10.0328 0 0 1 -4.16684 0
1 95 -2.8665 2.8665 -11.466 0 0 1 -4.04727 0
2 82 0 0 -11.466 0 0 1 -4.40965 0
2 83 1.43325 1.43325 -10.0328 0 0 1 -4.37197 0
2 84 2.8665 0 -11.466 0 0 1 -4.3786 0
2 97 0 2.8665 -11.466 0 0 1 -4.386 0
1 99 2.8665 2.8665 -11.466 0 0 1 -4.08646 0
2 85 4.29975 1.43325 -10.0328 0 0 1 -4.4122 0
2 86 5.733 0 -11.466 0 0 1 -4.23832 0
1 101 5.733 2.8665 -11.466 0 0 1 -3.8331 0
1 87 7.16625 1.43325 -10.0328 0 0 1 -3.99934 0
1 88 8.5995 0 -11.466 0 0 1 -3.45735 0
1 103 8.5995 2.8665 -11.466 0 0 1 -3.25768 0
1 89 10.0328 1.43325 -10.0328 0 0 1 -3.55271 0
1 90 -10.0328 4.29975 -10.0328 0 0 1 -3.065 0
1 92 -7.16625 4.29975 -10.0328 0 0 1 -3.91191 0
1 94 -4.29975 4.29975 -10.0328 0 0 1 -4.13784 0
1 106 -5.733 5.733 -11.466 0 0 1 -3.24249 0
1 96 -1.43325 4.29975 -10.0328 0 0 1 -4.22737 0
2 108 -2.8665 5.733 -11.466 0 0 1 -4.1143 0
1 98 1.43325 4.29975 -10.0328 0 0 1 -4.13069 0
2 110 0 5.733 -11.466 0 0 1 -4.26096 0
2 112 2.8665 5.733 -11.466 0 0 1 -4.13077 0
1 100 4.29975 4.29975 -10.0328 0 0 1 -4.11032 0
2 114 5.733 5.733 -11.466 0 0 1 -3.46451 0
2 102 7.16625 4.29975 -10.0328 0 0 1 -4.10161 0
2 104 10.0328 4.29975 -10.0328 0 0 1 -3.10216 0
1 105 -7.16625 7.16625 -10.0328 0 0 1 -3.25068 0
1 107 -4.29975 7.16625 -10.0328 0 0 1 -3.88503 0
1 109 -1.43325 7.16625 -10.0328 0 0 1 -4.10589 0
2 117 -2.8665 8.5995 -11.466 0 0 1 -3.44829 0
2 111 1.43325 7.16625 -10.0328 0 0 1 -4.3591 0
1 119 0 8.5995 -11.466 0 0 1 -3.44172 0
2 121 2.8665 8.5995 -11.466 0 0 1 -3.40533 0
1 113 4.29975 7.16625 -10.0328 0 0 1 -3.8771 0
1 115 7.16625 7.16625 -10.0328 0 0 1 -3.24735 0
1 116 -4.29975 10.0328 -10.0328 0 0 1 -3.03206 0
1 118 -1.43325 10.0328 -10.0328 0 0 1 -3.57645 0
1 120 1.43325 10.0328 -10.0328 0 0 1 -3.56494 0
1 122 4.29975 10.0328 -10.0328 0 0 1 -3.07687 0
1 123 -1.43325 -12.8992 -7.16625 0 0 1 -3.07898 0
2 124 1.43325 -12.8992 -7.16625 0 0 1 -3.17325 0
1 125 -7.16625 -10.0328 -7.16625 0 0 1 -3.28161 0
2 126 -4.29975 -10.0328 -7.16625 0 0 1 -4.1559 0
1 127 -2.8665 -11.466 -8.5995 0 0 1 -3.28295 0
1 128 -1.43325 -10.0328 -7.16625 0 0 1 -4.1338 0
1 129 0 -11.466 -8.5995 0 0 1 -3.60358 0
2 130 1.43325 -10.0328 -7.16625 0 0 1 -4.36881 0
1 131 2.8665 -11.466 -8.5995 0 0 1 -3.25181 0
1 132 4.29975 -10.0328 -7.16625 0 0 1 -3.85319 0
1 133 7.16625 -10.0328 -7.16625 0 0 1 -3.26618 0
1 134 -10.0328 -7.16625 -7.16625 0 0 1 -3.31658 0
1 135 -8.5995 -8.5995 -8.5995 0 0 1 -3.07198 0
1 136 -7.16625 -7.16625 -7.16625 0 0 1 -4.1989 0
1 137 -5.733 -8.5995 -8.5995 0 0 1 -3.78902 0
1 138 -4.29975 -7.16625 -7.16625 0 0 1 -4.126 0
1 139 -2.8665 -8.5995 -8.5995 0 0 1 -4.08652 0
1 140 -1.43325 -7.16625 -7.16625 0 0 1 -4.07235 0
1 141 0 -8.5995 -8.5995 0 0 1 -4.12354 0
2 142 1.43325 -7.16625 -7.16625 0 0 1 -4.39297 0
2 143 2.8665 -8.5995 -8.5995 0 0 1 -4.34161 0
2 144 4.29975 -7.16625 -7.16625 0 0 1 -4.39157 0
1 145 5.733 -8.5995 -8.5995 0 0 1 -3.76243 0
2 146 7.16625 -7.16625 -7.16625 0 0 1 -4.36555 0
1 147 8.5995 -8.5995 -8.5995 0 0 1 -3.05212 0
2 148 10.0328 -7.16625 -7.16625 0 0 1 -3.44761 0
1 149 -10.0328 -4.29975 -7.16625 0 0 1 -3.83704 0
1 150 -8.5995 -5.733 -8.5995 0 0 1 -3.74711 0
1 151 -7.16625 -4.29975 -7.16625 0 0 1 -4.19413 0
1 152 -5.733 -5.733 -8.5995 0 0 1 -4.14397 0
2 153 -4.29975 -4.29975 -7.16625 0 0 1 -4.41058 0
2 154 -2.8665 -5.733 -8.5995 0 0 1 -4.35974 0
2 155 -1.43325 -4.29975 -7.16625 0 0 1 -4.35686 0
1 156 0 -5.733 -8.5995 0 0 1 -4.13893 0
1 157 1.43325 -4.29975 -7.16625 0 0 1 -4.06883 0
1 158 2.8665 -5.733 -8.5995 0 0 1 -4.14265 0
1 159 4.29975 -4.29975 -7.16625 0 0 1 -4.11871 0
1 160 5.733 -5.733 -8.5995 0 0 1 -4.11032 0
1 161 7.16625 -4.29975 -7.16625 0 0 1 -4.17453 0
1 162 8.5995 -5.733 -8.5995 0 0 1 -3.76897 0
1 163 10.0328 -4.29975 -7.16625 0 0 1 -3.76783 0
2 164 -12.8992 -1.43325 -7.16625 0 0 1 -3.16311 0
1 165 -11.466 -2.8665 -8.5995 0 0 1 -3.28534 0
2 166 -10.0328 -1.43325 -7.16625 0 0 1 -4.36466 0
1 167 -8.5995 -2.8665 -8.5995 0 0 1 -4.15129 0
1 168 -7.16625 -1.43325 -7.16625 0 0 1 -4.20052 0
1 169 -5.733 -2.8665 -8.5995 0 0 1 -4.22984 0
1 170 -4.29975 -1.43325 -7.16625 0 0 1 -4.11024 0
1 171 -2.8665 -2.8665 -8.5995 0 0 1 -4.08481 0
1 172 -1.43325 -1.43325 -7.16625 0 0 1 -4.14713 0
2 173 0 -2.8665 -8.5995 0 0 1 -4.3995 0
1 174 1.43325 -1.43325 -7.16625 0 0 1 -4.22621 0
1 175 2.8665 -2.8665 -8.5995 0 0 1 -4.17583 0
1 176 4.29975 -1.43325 -7.16625 0 0 1 -4.16195 0
1 177 5.733 -2.8665 -8.5995 0 0 1 -4.23895 0
1 178 7.16625 -1.43325 -7.16625 0 0 1 -4.10857 0
1 179 8.5995 -2.8665 -8.5995 0 0 1 -3.99403 0
2 180 10.0328 -1.43325 -7.16625 0 0 1 -4.34477 0
2 181 11.466 -2.8665 -8.5995 0 0 1 -3.3739 0
2 182 12.8992 -1.43325 -7.16625 0 0 1 -3.16591 0
2 183 -12.8992 1.43325 -7.16625 0 0 1 -3.11103 0
1 184 -11.466 0 -8.5995 0 0 1 -3.52671 0
2 185 -10.0328 1.43325 -7.16625 0 0 1 -4.36588 0
2 202 -11.466 2.8665 -8.5995 0 0 1 -3.4279 0
1 186 -8.5995 0 -8.5995 0 0 1 -4.09571 0
1 187 -7.16625 1.43325 -7.16625 0 0 1 -4.14571 0
2 204 -8.5995 2.8665 -8.5995 0 0 1 -4.35487 0
1 188 -5.733 0 -8.5995 0 0 1 -4.24481 0
1 189 -4.29975 1.43325 -7.16625 0 0 1 -4.14494 0
1 206 -5.733 2.8665 -8.5995 0 0 1 -4.05961 0
1 190 -2.8665 0 -8.5995 0 0 1 -4.2024 0
1 191 -1.43325 1.43325 -7.16625 0 0 1 -4.241 0
2 208 -2.8665 2.8665 -8.5995 0 0 1 -4.40094 0
1 192 0 0 -8.5995 0 0 1 -4.10667 0
1 193 1.43325 1.43325 -7.16625 0 0 1 -4.10194 0
1 194 2.8665 0 -8.5995 0 0 1 -4.18921 0
2 210 0 2.8665 -8.5995 0 0 1 -4.41058 0
1 212 2.8665 2.8665 -8.5995 0 0 1 -4.19948 0
2 195 4.29975 1.43325 -7.16625 0 0 1 -4.40742 0
1 196 5.733 0 -8.5995 0 0 1 -4.13561 0
1 214 5.733 2.8665 -8.5995 0 0 1 -4.102 0
2 197 7.16625 1.43325 -7.16625 0 0 1 -4.3942 0
2 198 8.5995 0 -8.5995 0 0 1 -4.36054 0
2 216 8.5995 2.8665 -8.5995 0 0 1 -4.33206 0
2 199 10.0328 1.43325 -7.16625 0 0 1 -4.37666 0
1 200 11.466 0 -8.5995 0 0 1 -3.50992 0
1 218 11.466 2.8665 -8.5995 0 0 1 -3.2153 0
1 201 12.8992 1.43325 -7.16625 0 0 1 -3.03613 0
1 203 -10.0328 4.29975 -7.16625 0 0 1 -3.85047 0
1 205 -7.16625 4.29975 -7.16625 0 0 1 -4.09411 0
2 220 -8.5995 5.733 -8.5995 0 0 1 -4.06877 0
2 207 -4.29975 4.29975 -7.16625 0 0 1 -4.37097 0
2 222 -5.733 5.733 -8.5995 0 0 1 -4.32441 0
1 209 -1.43325 4.29975 -7.16625 0 0 1 -4.17753 0
1 224 -2.8665 5.733 -8.5995 0 0 1 -4.07819 0
1 211 1.43325 4.29975 -7.16625 0 0 1 -4.20065 0
1 226 0 5.733 -8.5995 0 0 1 -4.11309 0
1 228 2.8665 5.733 -8.5995 0 0 1 -4.15929 0
1 213 4.29975 4.29975 -7.16625 0 0 1 -4.19961 0
2 230 5.733 5.733 -8.5995 0 0 1 -4.37096 0
1 215 7.16625 4.29975 -7.16625 0 0 1 -4.14353 0
2 232 8.5995 5.733 -8.5995 0 0 1 -4.05329 0
1 217 10.0328 4.29975 -7.16625 0 0 1 -3.83633 0
2 219 -10.0328 7.16625 -7.16625 0 0 1 -3.42702 0
2 221 -7.16625 7.16625 -7.16625 0 0 1 -4.31874 0
2 234 -8.5995 8.5995 -8.5995 0 0 1 -3.06128 0
2 223 -4.29975 7.16625 -7.16625 0 0 1 -4.43046 0
1 236 -5.733 8.5995 -8.5995 0 0 1 -3.67803 0
1 225 -1.43325 7.16625 -7.16625 0 0 1 -4.11037 0
2 238 -2.8665 8.5995 -8.5995 0 0 1 -4.37345 0
1 227 1.43325 7.16625 -7.16625 0 0 1 -4.15356 0
2 240 0 8.5995 -8.5995 0 0 1 -4.36095 0
1 242 2.8665 8.5995 -8.5995 0 0 1 -4.06831 0
1 229 4.29975 7.16625 -7.16625 0 0 1 -4.17985 0
1 244 5.733 8.5995 -8.5995 0 0 1 -3.76997 0
1 231 7.16625 7.16625 -7.16625 0 0 1 -4.19069 0
1 246 8.5995 8.5995 -8.5995 0 0 1 -3.04211 0
1 233 10.0328 7.16625 -7.16625 0 0 1 -3.28695 0
1 235 -7.16625 10.0328 -7.16625 0 0 1 -3.1737 0
2 237 -4.29975 10.0328 -7.16625 0 0 1 -4.10722 0
2 239 -1.43325 10.0328 -7.16625 0 0 1 -4.36252 0
2 247 -2.8665 11.466 -8.5995 0 0 1 -3.38231 0
1 241 1.43325 10.0328 -7.16625 0 0 1 -4.15849 0
1 249 0 11.466 -8.5995 0 0 1 -3.47921 0
2 251 2.8665 11.466 -8.5995 0 0 1 -3.45253 0
1 243 4.29975 10.0328 -7.16625 0 0 1 -3.92621 0
1 245 7.16625 10.0328 -7.16625 0 0 1 -3.25768 0
2 248 -1.43325 12.8992 -7.16625 0 0 1 -3.14862 0
1 250 1.43325 12.8992 -7.16625 0 0 1 -3.05104 0
1 252 -4.29975 -12.8992 -4.29975 0 0 1 -3.27324 0
1 253 -1.43325 -12.8992 -4.29975 0 0 1 -3.70917 0
1 254 1.43325 -12.8992 -4.29975 0 0 1 -3.67086 0
2 255 4.29975 -12.8992 -4.29975 0 0 1 -3.43794 0
2 256 -10.0328 -10.0328 -4.29975 0 0 1 -3.12273 0
1 257 -7.16625 -10.0328 -4.29975 0 0 1 -3.8548 0
1 258 -5.733 -11.466 -5.733 0 0 1 -3.25308 0
1 259 -4.29975 -10.0328 -4.29975 0 0 1 -4.123 0
1 260 -2.8665 -11.466 -5.733 0 0 1 -3.92666 0
1 261 -1.43325 -10.0328 -4.29975 0 0 1 -4.1956 0
1 262 0 -11.466 -5.733 0 0 1 -3.9761 0
1 263 1.43325 -10.0328 -4.29975 0 0 1 -4.14444 0
1 264 2.8665 -11.466 -5.733 0 0 1 -3.84013 0
1 265 4.29975 -10.0328 -4.29975 0 0 1 -4.15923 0
2 266 5.733 -11.466 -5.733 0 0 1 -3.43682 0
1 267 7.16625 -10.0328 -4.29975 0 0 1 -3.88988 0
1 268 10.0328 -10.0328 -4.29975 0 0 1 -3.03647 0
1 269 -10.0328 -7.16625 -4.29975 0 0 1 -3.83789 0
1 270 -8.5995 -8.5995 -5.733 0 0 1 -3.7462 0
1 271 -7.16625 -7.16625 -4.29975 0 0 1 -4.23579 0
1 272 -5.733 -8.5995 -5.733 0 0 1 -4.20132 0
1 273 -4.29975 -7.16625 -4.29975 0 0 1 -4.19128 0
1 274 -2.8665 -8.5995 -5.733 0 0 1 -4.17852 0
2 275 -1.43325 -7.16625 -4.29975 0 0 1 -4.3986 0
2 276 0 -8.5995 -5.733 0 0 1 -4.38403 0
2 277 1.43325 -7.16625 -4.29975 0 0 1 -4.3882 0
2 278 2.8665 -8.5995 -5.733 0 0 1 -4.38942 0
1 279 4.29975 -7.16625 -4.29975 0 0 1 -4.10313 0
1 280 5.733 -8.5995 -5.733 0 0 1 -4.07637 0
1 281 7.16625 -7.16625 -4.29975 0 0 1 -4.10452 0
1 282 8.5995 -8.5995 -5.733 0 0 1 -3.7315 0
2 283 10.0328 -7.16625 -4.29975 0 0 1 -4.1002 0
1 284 -12.8992 -4.29975 -4.29975 0 0 1 -3.30593 0
1 285 -11.466 -5.733 -5.733 0 0 1 -3.27763 0
1 286 -10.0328 -4.29975 -4.29975 0 0 1 -4.2057 0
2 287 -8.5995 -5.733 -5.733 0 0 1 -4.38695 0
1 288 -7.16625 -4.29975 -4.29975 0 0 1 -4.22749 0
1 289 -5.733 -5.733 -5.733 0 0 1 -4.18731 0
1 290 -4.29975 -4.29975 -4.29975 0 0 1 -4.14883 0
1 291 -2.8665 -5.733 -5.733 0 0 1 -4.18202 0
1 292 -1.43325 -4.29975 -4.29975 0 0 1 -4.06583 0
1 293 0 -5.733 -5.733 0 0 1 -4.15445 0
2 294 1.43325 -4.29975 -4.29975 0 0 1 -4.39543 0
1 295 2.8665 -5.733 -5.733 0 0 1 -4.09539 0
2 296 4.29975 -4.29975 -4.29975 0 0 1 -4.403 0
2 297 5.733 -5.733 -5.733 0 0 1 -4.36425 0
2 298 7.16625 -4.29975 -4.29975 0 0 1 -4.3763 0
2 299 8.5995 -5.733 -5.733 0 0 1 -4.37656 0
2 300 10.0328 -4.29975 -4.29975 0 0 1 -4.3515 0
2 301 11.466 -5.733 -5.733 0 0 1 -3.38333 0
2 302 12.8992 -4.29975 -4.29975 0 0 1 -3.48813 0
1 303 -12.8992 -1.43325 -4.29975 0 0 1 -3.72681 0
1 304 -11.466 -2.8665 -5.733 0 0 1 -3.83445 0
1 305 -10.0328 -1.43325 -4.29975 0 0 1 -4.09552 0
2 306 -8.5995 -2.8665 -5.733 0 0 1 -4.42943 0
1 307 -7.16625 -1.43325 -4.29975 0 0 1 -4.14863 0
1 308 -5.733 -2.8665 -5.733 0 0 1 -4.19582 0
2 309 -4.29975 -1.43325 -4.29975 0 0 1 -4.42032 0
1 310 -2.8665 -2.8665 -5.733 0 0 1 -4.14388 0
2 311 -1.43325 -1.43325 -4.29975 0 0 1 -4.38441 0
2 312 0 -2.8665 -5.733 0 0 1 -4.39895 0
2 313 1.43325 -1.43325 -4.29975 0 0 1 -4.42209 0
1 314 2.8665 -2.8665 -5.733 0 0 1 -4.1899 0
1 315 4.29975 -1.43325 -4.29975 0 0 1 -4.12786 0
1 316 5.733 -2.8665 -5.733 0 0 1 -4.08297 0
1 317 7.16625 -1.43325 -4.29975 0 0 1 -4.16573 0
2 318 8.5995 -2.8665 -5.733 0 0 1 -4.37436 0
1 319 10.0328 -1.43325 -4.29975 0 0 1 -4.02167 0
1 320 11.466 -2.8665 -5.733 0 0 1 -3.75836 0
2 321 12.8992 -1.43325 -4.29975 0 0 1 -3.94018 0
1 322 -12.8992 1.43325 -4.29975 0 0 1 -3.62402 0
2 323 -11.466 0 -5.733 0 0 1 -4.23398 0
2 324 -10.0328 1.43325 -4.29975 0 0 1 -4.37407 0
2 342 -11.466 2.8665 -5.733 0 0 1 -4.1023 0
2 325 -8.5995 0 -5.733 0 0 1 -4.38901 0
2 326 -7.16625 1.43325 -4.29975 0 0 1 -4.40222 0
1 344 -8.5995 2.8665 -5.733 0 0 1 -4.03333 0
1 327 -5.733 0 -5.733 0 0 1 -4.14524 0
2 328 -4.29975 1.43325 -4.29975 0 0 1 -4.37576 0
2 346 -5.733 2.8665 -5.733 0 0 1 -4.36842 0
1 329 -2.8665 0 -5.733 0 0 1 -4.19681 0
1 330 -1.43325 1.43325 -4.29975 0 0 1 -4.09815 0
2 348 -2.8665 2.8665 -5.733 0 0 1 -4.41587 0
1 331 0 0 -5.733 0 0 1 -4.19863 0
2 332 1.43325 1.43325 -4.29975 0 0 1 -4.41394 0
1 333 2.8665 0 -5.733 0 0 1 -4.21903 0
1 350 0 2.8665 -5.733 0 0 1 -4.09625 0
1 352 2.8665 2.8665 -5.733 0 0 1 -4.18469 0
1 334 4.29975 1.43325 -4.29975 0 0 1 -4.0685 0
1 335 5.733 0 -5.733 0 0 1 -4.14093 0
2 354 5.733 2.8665 -5.733 0 0 1 -4.37212 0
2 336 7.16625 1.43325 -4.29975 0 0 1 -4.38804 0
1 337 8.5995 0 -5.733 0 0 1 -4.14963 0
1 356 8.5995 2.8665 -5.733 0 0 1 -4.01989 0
2 338 10.0328 1.43325 -4.29975 0 0 1 -4.39588 0
1 339 11.466 0 -5.733 0 0 1 -4.019 0
2 358 11.466 2.8665 -5.733 0 0 1 -4.10727 0
1 340 12.8992 1.43325 -4.29975 0 0 1 -3.67516 0
2 341 -12.8992 4.29975 -4.29975 0 0 1 -3.40919 0
1 343 -10.0328 4.29975 -4.29975 0 0 1 -4.03052 0
1 360 -11.466 5.733 -5.733 0 0 1 -3.22584 0
2 345 -7.16625 4.29975 -4.29975 0 0 1 -4.35945 0
2 362 -8.5995 5.733 -5.733 0 0 1 -4.33921 0
1 347 -4.29975 4.29975 -4.29975 0 0 1 -4.01532 0
1 364 -5.733 5.733 -5.733 0 0 1 -4.09747 0
1 349 -1.43325 4.29975 -4.29975 0 0 1 -4.16455 0
1 366 -2.8665 5.733 -5.733 0 0 1 -4.1564 0
2 351 1.43325 4.29975 -4.29975 0 0 1 -4.4098 0
1 368 0 5.733 -5.733 0 0 1 -4.23924 0
1 370 2.8665 5.733 -5.733 0 0 1 -4.22483 0
1 353 4.29975 4.29975 -4.29975 0 0 1 -4.15904 0
1 372 5.733 5.733 -5.733 0 0 1 -4.09805 0
1 355 7.16625 4.29975 -4.29975 0 0 1 -4.1857 0
2 374 8.5995 5.733 -5.733 0 0 1 -4.37007 0
1 357 10.0328 4.29975 -4.29975 0 0 1 -4.1062 0
2 376 11.466 5.733 -5.733 0 0 1 -3.48752 0
1 359 12.8992 4.29975 -4.29975 0 0 1 -3.30443 0
2 361 -10.0328 7.16625 -4.29975 0 0 1 -4.09824 0
1 363 -7.16625 7.16625 -4.29975 0 0 1 -3.96643 0
1 378 -8.5995 8.5995 -5.733 0 0 1 -3.65668 0
2 365 -4.29975 7.16625 -4.29975 0 0 1 -4.38518 0
1 380 -5.733 8.5995 -5.733 0 0 1 -4.12602 0
2 367 -1.43325 7.16625 -4.29975 0 0 1 -4.39898 0
2 382 -2.8665 8.5995 -5.733 0 0 1 -4.37594 0
2 369 1.43325 7.16625 -4.29975 0 0 1 -4.45418 0
1 384 0 8.5995 -5.733 0 0 1 -4.1453 0
1 386 2.8665 8.5995 -5.733 0 0 1 -4.18682 0
2 371 4.29975 7.16625 -4.29975 0 0 1 -4.40186 0
1 388 5.733 8.5995 -5.733 0 0 1 -4.21855 0
1 373 7.16625 7.16625 -4.29975 0 0 1 -4.12419 0
1 390 8.5995 8.5995 -5.733 0 0 1 -3.71411 0
1 375 10.0328 7.16625 -4.29975 0 0 1 -3.9293 0
1 377 -10.0328 10.0328 -4.29975 0 0 1 -2.97111 0
2 379 -7.16625 10.0328 -4.29975 0 0 1 -4.11418 0
1 381 -4.29975 10.0328 -4.29975 0 0 1 -4.08364 0
2 392 -5.733 11.466 -5.733 0 0 1 -3.41653 0
1 383 -1.43325 10.0328 -4.29975 0 0 1 -4.15056 0
1 394 -2.8665 11.466 -5.733 0 0 1 -3.78765 0
1 385 1.43325 10.0328 -4.29975 0 0 1 -4.15674 0
1 396 0 11.466 -5.733 0 0 1 -3.99381 0
2 398 2.8665 11.466 -5.733 0 0 1 -4.15092 0
1 387 4.29975 10.0328 -4.29975 0 0 1 -4.07956 0
1 400 5.733 11.466 -5.733 0 0 1 -3.27188 0
2 389 7.16625 10.0328 -4.29975 0 0 1 -4.11684 0
1 391 10.0328 10.0328 -4.29975 0 0 1 -3.00115 0
1 393 -4.29975 12.8992 -4.29975 0 0 1 -3.27642 0
1 395 -1.43325 12.8992 -4.29975 0 0 1 -3.71471 0
1 397 1.43325 12.8992 -4.29975 0 0 1 -3.76353 0
1 399 4.29975 12.8992 -4.29975 0 0 1 -3.27324 0
1 401 -7.16625 -12.8992 -1.43325 0 0 1 -3.03025 0
2 402 -4.29975 -12.8992 -1.43325 0 0 1 -3.91899 0
2 403 -2.8665 -14.3325 -2.8665 0 0 1 -3.09992 0
2 404 -1.43325 -12.8992 -1.43325 0 0 1 -4.23988 0
2 405 0 -14.3325 -2.8665 0 0 1 -3.32717 0
1 406 1.43325 -12.8992 -1.43325 0 0 1 -3.99877 0
1 407 2.8665 -14.3325 -2.8665 0 0 1 -3.04844 0
1 408 4.29975 -12.8992 -1.43325 0 0 1 -3.68512 0
2 409 7.16625 -12.8992 -1.43325 0 0 1 -3.16264 0
2 410 -10.0328 -10.0328 -1.43325 0 0 1 -3.86623 0
1 411 -8.5995 -11.466 -2.8665 0 0 1 -3.23447 0
2 412 -7.16625 -10.0328 -1.43325 0 0 1 -4.36524 0
2 413 -5.733 -11.466 -2.8665 0 0 1 -4.08561 0
2 414 -4.29975 -10.0328 -1.43325 0 0 1 -4.41341 0
1 415 -2.8665 -11.466 -2.8665 0 0 1 -4.02912 0
1 416 -1.43325 -10.0328 -1.43325 0 0 1 -4.10554 0
2 417 0 -11.466 -2.8665 0 0 1 -4.38857 0
1 418 1.43325 -10.0328 -1.43325 0 0 1 -4.23076 0
1 419 2.8665 -11.466 -2.8665 0 0 1 -4.13249 0
1 420 4.29975 -10.0328 -1.43325 0 0 1 -4.13978 0
1 421 5.733 -11.466 -2.8665 0 0 1 -3.82611 0
2 422 7.16625 -10.0328 -1.43325 0 0 1 -4.37603 0
2 423 8.5995 -11.466 -2.8665 0 0 1 -3.41097 0
1 424 10.0328 -10.0328 -1.43325 0 0 1 -3.53558 0
1 425 -12.8992 -7.16625 -1.43325 0 0 1 -3.07199 0
2 426 -11.466 -8.5995 -2.8665 0 0 1 -3.37206 0
2 427 -10.0328 -7.16625 -1.43325 0 0 1 -4.37927 0
1 428 -8.5995 -8.5995 -2.8665 0 0 1 -4.14247 0
1 429 -7.16625 -7.16625 -1.43325 0 0 1 -4.15611 0
1 430 -5.733 -8.5995 -2.8665 0 0 1 -4.18113 0
1 431 -4.29975 -7.16625 -1.43325 0 0 1 -4.19652 0
1 432 -2.8665 -8.5995 -2.8665 0 0 1 -4.16469 0
1 433 -1.43325 -7.16625 -1.43325 0 0 1 -4.1416 0
2 434 0 -8.5995 -2.8665 0 0 1 -4.41897 0
1 435 1.43325 -7.16625 -1.43325 0 0 1 -4.1405 0
2 436 2.8665 -8.5995 -2.8665 0 0 1 -4.43226 0
1 437 4.29975 -7.16625 -1.43325 0 0 1 -4.14917 0
1 438 5.733 -8.5995 -2.8665 0 0 1 -4.17166 0
1 439 7.16625 -7.16625 -1.43325 0 0 1 -4.18802 0
2 440 8.5995 -8.5995 -2.8665 0 0 1 -4.38027 0
1 441 10.0328 -7.16625 -1.43325 0 0 1 -4.16607 0
2 442 11.466 -8.5995 -2.8665 0 0 1 -3.43472 0
1 443 12.8992 -7.16625 -1.43325 0 0 1 -3.01619 0
1 444 -12.8992 -4.29975 -1.43325 0 0 1 -3.76428 0
1 445 -11.466 -5.733 -2.8665 0 0 1 -3.88297 0
1 446 -10.0328 -4.29975 -1.43325 0 0 1 -4.14654 0
1 447 -8.5995 -5.733 -2.8665 0 0 1 -4.15073 0
1 448 -7.16625 -4.29975 -1.43325 0 0 1 -4.18093 0
1 449 -5.733 -5.733 -2.8665 0 0 1 -4.20128 0
1 450 -4.29975 -4.29975 -1.43325 0 0 1 -4.23583 0
1 451 -2.8665 -5.733 -2.8665 0 0 1 -4.1526 0
1 452 -1.43325 -4.29975 -1.43325 0 0 1 -4.23002 0
1 453 0 -5.733 -2.8665 0 0 1 -4.12242 0
1 454 1.43325 -4.29975 -1.43325 0 0 1 -4.14846 0
2 455 2.8665 -5.733 -2.8665 0 0 1 -4.35699 0
2 456 4.29975 -4.29975 -1.43325 0 0 1 -4.38274 0
1 457 5.733 -5.733 -2.8665 0 0 1 -4.01277 0
1 458 7.16625 -4.29975 -1.43325 0 0 1 -4.1448 0
2 459 8.5995 -5.733 -2.8665 0 0 1 -4.37103 0
1 460 10.0328 -4.29975 -1.43325 0 0 1 -4.09336 0
1 461 11.466 -5.733 -2.8665 0 0 1 -3.74082 0
2 462 12.8992 -4.29975 -1.43325 0 0 1 -3.91691 0
1 463 -14.3325 -2.8665 -2.8665 0 0 1 -3.0998 0
1 464 -12.8992 -1.43325 -1.43325 0 0 1 -3.98948 0
1 465 -11.466 -2.8665 -2.8665 0 0 1 -4.1286 0
2 466 -10.0328 -1.43325 -1.43325 0 0 1 -4.37698 0
2 467 -8.5995 -2.8665 -2.8665 0 0 1 -4.40541 0
1 468 -7.16625 -1.43325 -1.43325 0 0 1 -4.19863 0
1 469 -5.733 -2.8665 -2.8665 0 0 1 -4.14695 0
1 470 -4.29975 -1.43325 -1.43325 0 0 1 -4.14525 0
2 471 -2.8665 -2.8665 -2.8665 0 0 1 -4.39844 0
1 472 -1.43325 -1.43325 -1.43325 0 0 1 -4.18814 0
2 473 0 -2.8665 -2.8665 0 0 1 -4.39519 0
1 474 1.43325 -1.43325 -1.43325 0 0 1 -4.15927 0
1 475 2.8665 -2.8665 -2.8665 0 0 1 -4.04999 0
2 476 4.29975 -1.43325 -1.43325 0 0 1 -4.40965 0
2 477 5.733 -2.8665 -2.8665 0 0 1 -4.35797 0
1 478 7.16625 -1.43325 -1.43325 0 0 1 -4.14826 0
1 479 8.5995 -2.8665 -2.8665 0 0 1 -4.09935 0
2 480 10.0328 -1.43325 -1.43325 0 0 1 -4.37349 0
1 481 11.466 -2.8665 -2.8665 0 0 1 -4.16803 0
1 482 12.8992 -1.43325 -1.43325 0 0 1 -3.9119 0
1 483 14.3325 -2.8665 -2.8665 0 0 1 -3.0275 0
1 484 -14.3325 0 -2.8665 0 0 1 -3.25015 0
1 485 -12.8992 1.43325 -1.43325 0 0 1 -3.99491 0
2 505 -14.3325 2.8665 -2.8665 0 0 1 -3.1173 0
1 486 -11.466 0 -2.8665 0 0 1 -4.06834 0
1 487 -10.0328 1.43325 -1.43325 0 0 1 -4.13426 0
2 507 -11.466 2.8665 -2.8665 0 0 1 -4.36359 0
2 488 -8.5995 0 -2.8665 0 0 1 -4.39329 0
1 489 -7.16625 1.43325 -1.43325 0 0 1 -4.16312 0
1 509 -8.5995 2.8665 -2.8665 0 0 1 -4.069 0
1 490 -5.733 0 -2.8665 0 0 1 -4.16103 0
1 491 -4.29975 1.43325 -1.43325 0 0 1 -4.10389 0
2 511 -5.733 2.8665 -2.8665 0 0 1 -4.371 0
1 492 -2.8665 0 -2.8665 0 0 1 -4.15802 0
1 493 -1.43325 1.43325 -1.43325 0 0 1 -4.24754 0
2 513 -2.8665 2.8665 -2.8665 0 0 1 -4.43179 0
1 494 0 0 -2.8665 0 0 1 -4.10076 0
1 495 1.43325 1.43325 -1.43325 0 0 1 -4.14227 0
1 496 2.8665 0 -2.8665 0 0 1 -4.20713 0
2 515 0 2.8665 -2.8665 0 0 1 -4.39303 0
1 517 2.8665 2.8665 -2.8665 0 0 1 -4.10082 0
2 497 4.29975 1.43325 -1.43325 0 0 1 -4.37475 0
2 498 5.733 0 -2.8665 0 0 1 -4.39212 0
2 519 5.733 2.8665 -2.8665 0 0 1 -4.43807 0
1 499 7.16625 1.43325 -1.43325 0 0 1 -4.15406 0
1 500 8.5995 0 -2.8665 0 0 1 -4.09282 0
2 521 8.5995 2.8665 -2.8665 0 0 1 -4.35699 0
1 501 10.0328 1.43325 -1.43325 0 0 1 -4.04853 0
1 502 11.466 0 -2.8665 0 0 1 -4.17512 0
1 523 11.466 2.8665 -2.8665 0 0 1 -4.11758 0
1 503 12.8992 1.43325 -1.43325 0 0 1 -4.06766 0
2 504 14.3325 0 -2.8665 0 0 1 -3.29707 0
1 525 14.3325 2.8665 -2.8665 0 0 1 -3.05719 0
2 506 -12.8992 4.29975 -1.43325 0 0 1 -3.90068 0
1 508 -10.0328 4.29975 -1.43325 0 0 1 -4.15096 0
1 527 -11.466 5.733 -2.8665 0 0 1 -3.84009 0
2 510 -7.16625 4.29975 -1.43325 0 0 1 -4.43549 0
2 529 -8.5995 5.733 -2.8665 0 0 1 -4.38866 0
2 512 -4.29975 4.29975 -1.43325 0 0 1 -4.35386 0
1 531 -5.733 5.733 -2.8665 0 0 1 -4.10501 0
1 514 -1.43325 4.29975 -1.43325 0 0 1 -4.14185 0
1 533 -2.8665 5.733 -2.8665 0 0 1 -4.15309 0
1 516 1.43325 4.29975 -1.43325 0 0 1 -4.15071 0
1 535 0 5.733 -2.8665 0 0 1 -4.18173 0
1 537 2.8665 5.733 -2.8665 0 0 1 -4.22763 0
1 518 4.29975 4.29975 -1.43325 0 0 1 -4.19294 0
1 539 5.733 5.733 -2.8665 0 0 1 -4.20719 0
1 520 7.16625 4.29975 -1.43325 0 0 1 -4.18655 0
1 541 8.5995 5.733 -2.8665 0 0 1 -4.06052 0
2 522 10.0328 4.29975 -1.43325 0 0 1 -4.39415 0
1 543 11.466 5.733 -2.8665 0 0 1 -3.85658 0
1 524 12.8992 4.29975 -1.43325 0 0 1 -3.70908 0
1 526 -12.8992 7.16625 -1.43325 0 0 1 -3.04203 0
1 528 -10.0328 7.16625 -1.43325 0 0 1 -4.08321 0
1 545 -11.466 8.5995 -2.8665 0 0 1 -3.24213 0
2 530 -7.16625 7.16625 -1.43325 0 0 1 -4.34317 0
2 547 -8.5995 8.5995 -2.8665 0 0 1 -4.32827 0
1 532 -4.29975 7.16625 -1.43325 0 0 1 -4.0541 0
1 549 -5.733 8.5995 -2.8665 0 0 1 -4.1155 0
1 534 -1.43325 7.16625 -1.43325 0 0 1 -4.12163 0
2 551 -2.8665 8.5995 -2.8665 0 0 1 -4.41271 0
2 536 1.43325 7.16625 -1.43325 0 0 1 -4.39425 0
1 553 0 8.5995 -2.8665 0 0 1 -4.10452 0
1 555 2.8665 8.5995 -2.8665 0 0 1 -4.1841 0
1 538 4.29975 7.16625 -1.43325 0 0 1 -4.06128 0
1 557 5.733 8.5995 -2.8665 0 0 1 -4.17651 0
1 540 7.16625 7.16625 -1.43325 0 0 1 -4.208 0
2 559 8.5995 8.5995 -2.8665 0 0 1 -4.3386 0
1 542 10.0328 7.16625 -1.43325 0 0 1 -4.11134 0
1 561 11.466 8.5995 -2.8665 0 0 1 -3.26032 0
1 544 12.8992 7.16625 -1.43325 0 0 1 -3.1102 0
2 546 -10.0328 10.0328 -1.43325 0 0 1 -3.80295 0
2 548 -7.16625 10.0328 -1.43325 0 0 1 -4.36297 0
1 562 -8.5995 11.466 -2.8665 0 0 1 -3.20935 0
1 550 -4.29975 10.0328 -1.43325 0 0 1 -4.14421 0
1 564 -5.733 11.466 -2.8665 0 0 1 -3.83746 0
1 552 -1.43325 10.0328 -1.43325 0 0 1 -4.14963 0
1 566 -2.8665 11.466 -2.8665 0 0 1 -4.12721 0
2 554 1.43325 10.0328 -1.43325 0 0 1 -4.38636 0
2 568 0 11.466 -2.8665 0 0 1 -4.40183 0
2 570 2.8665 11.466 -2.8665 0 0 1 -4.36808 0
2 556 4.29975 10.0328 -1.43325 0 0 1 -4.39174 0
1 572 5.733 11.466 -2.8665 0 0 1 -3.82389 0
1 558 7.16625 10.0328 -1.43325 0 0 1 -4.02847 0
1 574 8.5995 11.466 -2.8665 0 0 1 -3.23798 0
2 560 10.0328 10.0328 -1.43325 0 0 1 -3.81499 0
1 563 -7.16625 12.8992 -1.43325 0 0 1 -3.01885 0
2 565 -4.29975 12.8992 -1.43325 0 0 1 -3.93241 0
1 567 -1.43325 12.8992 -1.43325 0 0 1 -3.95918 0
1 575 -2.8665 14.3325 -2.8665 0 0 1 -3.08914 0
1 569 1.43325 12.8992 -1.43325 0 0 1 -3.95863 0
1 576 0 14.3325 -2.8665 0 0 1 -3.2361 0
1 577 2.8665 14.3325 -2.8665 0 0 1 -3.05691 0
2 571 4.29975 12.8992 -1.43325 0 0 1 -3.94128 0
2 573 7.16625 12.8992 -1.43325 0 0 1 -3.14524 0
1 578 -7.16625 -12.8992 1.43325 0 0 1 -3.13566 0
1 579 -4.29975 -12.8992 1.43325 0 0 1 -3.643 0
1 580 -2.8665 -14.3325 0 0 0 1 -3.12041 0
2 581 -1.43325 -12.8992 1.43325 0 0 1 -4.24285 0
2 756 -2.8665 -14.3325 2.8665 0 0 1 -3.11545 0
1 582 0 -14.3325 0 0 0 1 -3.43146 0
1 583 1.43325 -12.8992 1.43325 0 0 1 -4.01431 0
1 584 2.8665 -14.3325 0 0 0 1 -3.26314 0
1 758 0 -14.3325 2.8665 0 0 1 -3.16675 0
1 760 2.8665 -14.3325 2.8665 0 0 1 -3.09778 0
1 585 4.29975 -12.8992 1.43325 0 0 1 -3.63575 0
2 586 7.16625 -12.8992 1.43325 0 0 1 -3.16119 0
2 587 -10.0328 -10.0328 1.43325 0 0 1 -3.84862 0
1 588 -8.5995 -11.466 0 0 0 1 -3.58499 0
1 589 -7.16625 -10.0328 1.43325 0 0 1 -4.09136 0
1 763 -8.5995 -11.466 2.8665 0 0 1 -3.2898 0
1 590 -5.733 -11.466 0 0 0 1 -3.95723 0
2 591 -4.29975 -10.0328 1.43325 0 0 1 -4.4038 0
1 765 -5.733 -11.466 2.8665 0 0 1 -3.87207 0
2 592 -2.8665 -11.466 0 0 0 1 -4.32182 0
2 593 -1.43325 -10.0328 1.43325 0 0 1 -4.39869 0
1 767 -2.8665 -11.466 2.8665 0 0 1 -4.06179 0
1 594 0 -11.466 0 0 0 1 -4.05905 0
1 595 1.43325 -10.0328 1.43325 0 0 1 -4.10489 0
1 596 2.8665 -11.466 0 0 0 1 -4.18834 0
2 769 0 -11.466 2.8665 0 0 1 -4.35832 0
1 771 2.8665 -11.466 2.8665 0 0 1 -4.06908 0
2 597 4.29975 -10.0328 1.43325 0 0 1 -4.38292 0
1 598 5.733 -11.466 0 0 0 1 -4.01311 0
2 773 5.733 -11.466 2.8665 0 0 1 -4.09249 0
2 599 7.16625 -10.0328 1.43325 0 0 1 -4.39406 0
1 600 8.5995 -11.466 0 0 0 1 -3.54859 0
1 775 8.5995 -11.466 2.8665 0 0 1 -3.24137 0
2 601 10.0328 -10.0328 1.43325 0 0 1 -3.82818 0
1 602 -12.8992 -7.16625 1.43325 0 0 1 -3.07199 0
1 603 -11.466 -8.5995 0 0 0 1 -3.49588 0
2 604 -10.0328 -7.16625 1.43325 0 0 1 -4.37759 0
2 777 -11.466 -8.5995 2.8665 0 0 1 -3.37129 0
1 605 -8.5995 -8.5995 0 0 0 1 -4.21295 0
1 606 -7.16625 -7.16625 1.43325 0 0 1 -4.16521 0
1 779 -8.5995 -8.5995 2.8665 0 0 1 -4.12736 0
1 607 -5.733 -8.5995 0 0 0 1 -4.14148 0
1 608 -4.29975 -7.16625 1.43325 0 0 1 -4.15409 0
1 781 -5.733 -8.5995 2.8665 0 0 1 -4.18064 0
2 609 -2.8665 -8.5995 0 0 0 1 -4.40401 0
2 610 -1.43325 -7.16625 1.43325 0 0 1 -4.3972 0
1 783 -2.8665 -8.5995 2.8665 0 0 1 -4.20564 0
2 611 0 -8.5995 0 0 0 1 -4.38269 0
2 612 1.43325 -7.16625 1.43325 0 0 1 -4.38689 0
2 613 2.8665 -8.5995 0 0 0 1 -4.40415 0
1 785 0 -8.5995 2.8665 0 0 1 -4.09975 0
2 787 2.8665 -8.5995 2.8665 0 0 1 -4.39529 0
2 614 4.29975 -7.16625 1.43325 0 0 1 -4.37435 0
1 615 5.733 -8.5995 0 0 0 1 -4.10744 0
2 789 5.733 -8.5995 2.8665 0 0 1 -4.37714 0
1 616 7.16625 -7.16625 1.43325 0 0 1 -4.10208 0
1 617 8.5995 -8.5995 0 0 0 1 -4.20475 0
1 791 8.5995 -8.5995 2.8665 0 0 1 -4.04614 0
1 618 10.0328 -7.16625 1.43325 0 0 1 -4.10601 0
1 619 11.466 -8.5995 0 0 0 1 -3.46809 0
2 793 11.466 -8.5995 2.8665 0 0 1 -3.39309 0
2 620 12.8992 -7.16625 1.43325 0 0 1 -3.10254 0
1 621 -12.8992 -4.29975 1.43325 0 0 1 -3.76252 0
1 622 -11.466 -5.733 0 0 0 1 -4.01618 0
1 623 -10.0328 -4.29975 1.43325 0 0 1 -4.10599 0
1 795 -11.466 -5.733 2.8665 0 0 1 -3.86989 0
1 624 -8.5995 -5.733 0 0 0 1 -4.18164 0