ITEM: TIMESTEP
0
ITEM: NUMBER OF ATOMS
1151
ITEM: BOX BOUNDS pp pp pp
-2.5000000000000000e+01 2.5000000000000000e+01
-2.5000000000000000e+01 2.5000000000000000e+01
-2.5000000000000000e+01 2.5000000000000000e+01
ITEM: ATOMS type id x y z c_outsp[1] c_outsp[2] c_outsp[3] c_peAtom c_keAtom
2 1 -7.16625 -7.16625 -12.8992 0 0 1 -3.10604 0
1 2 -4.29975 -7.16625 -12.8992 0 0 1 -3.20362 0
2 3 -1.43325 -7.16625 -12.8992 0 0 1 -3.30235 0
2 4 1.43325 -7.16625 -12.8992 0 0 1 -3.26159 0
1 5 4.29975 -7.16625 -12.8992 0 0 1 -3.14337 0
2 6 7.16625 -7.16625 -12.8992 0 0 1 -3.10979 0
1 7 -7.16625 -4.29975 -12.8992 0 0 1 -3.55612 0
1 8 -4.29975 -4.29975 -12.8992 0 0 1 -3.73754 0
2 9 -1.43325 -4.29975 -12.8992 0 0 1 -3.95388 0
1 10 1.43325 -4.29975 -12.8992 0 0 1 -3.61112 0
1 11 4.29975 -4.29975 -12.8992 0 0 1 -3.71564 0
2 12 7.16625 -4.29975 -12.8992 0 0 1 -3.80642 0
1 13 -8.5995 -2.8665 -14.3325 0 0 1 -2.5314 0
1 14 -7.16625 -1.43325 -12.8992 0 0 1 -3.82977 0
2 15 -5.733 -2.8665 -14.3325 0 0 1 -3.3368 0
1 16 -4.29975 -1.43325 -12.8992 0 0 1 -4.00167 0
2 17 -2.8665 -2.8665 -14.3325 0 0 1 -3.28519 0
2 18 -1.43325 -1.43325 -12.8992 0 0 1 -4.24048 0
1 19 0 -2.8665 -14.3325 0 0 1 -3.16795 0
2 20 1.43325 -1.43325 -12.8992 0 0 1 -4.24957 0
1 21 2.8665 -2.8665 -14.3325 0 0 1 -3.26802 0
1 22 4.29975 -1.43325 -12.8992 0 0 1 -3.92855 0
1 23 5.733 -2.8665 -14.3325 0 0 1 -3.25061 0
2 24 7.16625 -1.43325 -12.8992 0 0 1 -4.11451 0
1 25 8.5995 -2.8665 -14.3325 0 0 1 -2.537 0
2 26 -8.5995 0 -14.3325 0 0 1 -2.65991 0
1 27 -7.16625 1.43325 -12.8992 0 0 1 -3.79532 0
2 39 -8.5995 2.8665 -14.3325 0 0 1 -2.39869 0
1 28 -5.733 0 -14.3325 0 0 1 -3.33327 0
1 29 -4.29975 1.43325 -12.8992 0 0 1 -4.05684 0
2 41 -5.733 2.8665 -14.3325 0 0 1 -3.31111 0
1 30 -2.8665 0 -14.3325 0 0 1 -3.37699 0
1 31 -1.43325 1.43325 -12.8992 0 0 1 -3.91762 0
1 43 -2.8665 2.8665 -14.3325 0 0 1 -3.23434 0
2 32 0 0 -14.3325 0 0 1 -3.4621 0
2 33 1.43325 1.43325 -12.8992 0 0 1 -4.22564 0
1 34 2.8665 0 -14.3325 0 0 1 -3.30877 0
1 45 0 2.8665 -14.3325 0 0 1 -3.18019 0
2 47 2.8665 2.8665 -14.3325 0 0 1 -3.28973 0
2 35 4.29975 1.43325 -12.8992 0 0 1 -4.21911 0
1 36 5.733 0 -14.3325 0 0 1 -3.44585 0
1 49 5.733 2.8665 -14.3325 0 0 1 -3.16407 0
1 37 7.16625 1.43325 -12.8992 0 0 1 -3.70733 0
1 38 8.5995 0 -14.3325 0 0 1 -2.80616 0
1 51 8.5995 2.8665 -14.3325 0 0 1 -2.59809 0
2 40 -7.16625 4.29975 -12.8992 0 0 1 -3.77289 0
1 42 -4.29975 4.29975 -12.8992 0 0 1 -3.73488 0
1 44 -1.43325 4.29975 -12.8992 0 0 1 -3.69019 0
1 46 1.43325 4.29975 -12.8992 0 0 1 -3.69919 0
1 48 4.29975 4.29975 -12.8992 0 0 1 -3.66235 0
2 50 7.16625 4.29975 -12.8992 0 0 1 -3.79988 0
1 52 -7.16625 7.16625 -12.8992 0 0 1 -2.99164 0
1 53 -4.29975 7.16625 -12.8992 0 0 1 -3.21071 0
2 54 -1.43325 7.16625 -12.8992 0 0 1 -3.25804 0
2 55 1.43325 7.16625 -12.8992 0 0 1 -3.32919 0
2 56 4.29975 7.16625 -12.8992 0 0 1 -3.35433 0
2 57 7.16625 7.16625 -12.8992 0 0 1 -3.12397 0
2 58 -7.16625 -10.0328 -10.0328 0 0 1 -3.67469 0
2 59 -4.29975 -10.0328 -10.0328 0 0 1 -3.8258 0
1 60 -1.43325 -10.0328 -10.0328 0 0 1 -3.52256 0
1 61 1.43325 -10.0328 -10.0328 0 0 1 -3.62073 0
1 62 4.29975 -10.0328 -10.0328 0 0 1 -3.5577 0
1 63 7.16625 -10.0328 -10.0328 0 0 1 -3.45376 0
2 64 -8.5995 -8.5995 -11.466 0 0 1 -2.68902 0
2 65 -7.16625 -7.16625 -10.0328 0 0 1 -4.25459 0
1 66 -5.733 -8.5995 -11.466 0 0 1 -3.54012 0
1 67 -4.29975 -7.16625 -10.0328 0 0 1 -4.12978 0
1 68 -2.8665 -8.5995 -11.466 0 0 1 -3.56836 0
1 69 -1.43325 -7.16625 -10.0328 0 0 1 -4.1867 0
2 70 0 -8.5995 -11.466 0 0 1 -3.80423 0
1 71 1.43325 -7.16625 -10.0328 0 0 1 -4.07424 0
1 72 2.8665 -8.5995 -11.466 0 0 1 -3.48627 0
2 73 4.29975 -7.16625 -10.0328 0 0 1 -4.35295 0
1 74 5.733 -8.5995 -11.466 0 0 1 -3.56742 0
1 75 7.16625 -7.16625 -10.0328 0 0 1 -3.90289 0
2 76 8.5995 -8.5995 -11.466 0 0 1 -2.76144 0
1 77 -8.5995 -5.733 -11.466 0 0 1 -3.20327 0
1 78 -7.16625 -4.29975 -10.0328 0 0 1 -3.95678 0
1 79 -5.733 -5.733 -11.466 0 0 1 -4.06395 0
1 80 -4.29975 -4.29975 -10.0328 0 0 1 -4.23402 0
1 81 -2.8665 -5.733 -11.466 0 0 1 -4.02041 0
1 82 -1.43325 -4.29975 -10.0328 0 0 1 -4.14134 0
2 83 0 -5.733 -11.466 0 0 1 -4.25624 0
2 84 1.43325 -4.29975 -10.0328 0 0 1 -4.38 0
2 85 2.8665 -5.733 -11.466 0 0 1 -4.24522 0
2 86 4.29975 -4.29975 -10.0328 0 0 1 -4.39368 0
1 87 5.733 -5.733 -11.466 0 0 1 -3.98292 0
1 88 7.16625 -4.29975 -10.0328 0 0 1 -3.93932 0
1 89 8.5995 -5.733 -11.466 0 0 1 -3.12573 0
1 90 -8.5995 -2.8665 -11.466 0 0 1 -3.44783 0
2 91 -7.16625 -1.43325 -10.0328 0 0 1 -4.26578 0
1 92 -5.733 -2.8665 -11.466 0 0 1 -4.12912 0
1 93 -4.29975 -1.43325 -10.0328 0 0 1 -4.19673 0
1 94 -2.8665 -2.8665 -11.466 0 0 1 -4.13901 0
1 95 -1.43325 -1.43325 -10.0328 0 0 1 -4.10026 0
1 96 0 -2.8665 -11.466 0 0 1 -4.15016 0
2 97 1.43325 -1.43325 -10.0328 0 0 1 -4.37469 0
1 98 2.8665 -2.8665 -11.466 0 0 1 -4.08604 0
1 99 4.29975 -1.43325 -10.0328 0 0 1 -4.1264 0
1 100 5.733 -2.8665 -11.466 0 0 1 -4.13075 0
1 101 7.16625 -1.43325 -10.0328 0 0 1 -3.92051 0
2 102 8.5995 -2.8665 -11.466 0 0 1 -3.45449 0
1 103 -8.5995 0 -11.466 0 0 1 -3.39325 0
2 104 -7.16625 1.43325 -10.0328 0 0 1 -4.27495 0
1 116 -8.5995 2.8665 -11.466 0 0 1 -3.39244 0
1 105 -5.733 0 -11.466 0 0 1 -4.23621 0
1 106 -4.29975 1.43325 -10.0328 0 0 1 -4.1037 0
1 118 -5.733 2.8665 -11.466 0 0 1 -4.17239 0
1 107 -2.8665 0 -11.466 0 0 1 -4.19471 0
2 108 -1.43325 1.43325 -10.0328 0 0 1 -4.37317 0
1 120 -2.8665 2.8665 -11.466 0 0 1 -4.12897 0
2 109 0 0 -11.466 0 0 1 -4.38468 0
2 110 1.43325 1.43325 -10.0328 0 0 1 -4.3853 0
2 111 2.8665 0 -11.466 0 0 1 -4.3592 0
1 122 0 2.8665 -11.466 0 0 1 -4.10621 0
2 124 2.8665 2.8665 -11.466 0 0 1 -4.39396 0
2 112 4.29975 1.43325 -10.0328 0 0 1 -4.381 0
1 113 5.733 0 -11.466 0 0 1 -4.09193 0
2 126 5.733 2.8665 -11.466 0 0 1 -4.34733 0
2 114 7.16625 1.43325 -10.0328 0 0 1 -4.22406 0
1 115 8.5995 0 -11.466 0 0 1 -3.40528 0
1 128 8.5995 2.8665 -11.466 0 0 1 -3.3275 0
2 117 -7.16625 4.29975 -10.0328 0 0 1 -4.29069 0
1 129 -8.5995 5.733 -11.466 0 0 1 -3.17227 0
1 119 -4.29975 4.29975 -10.0328 0 0 1 -4.16232 0
1 131 -5.733 5.733 -11.466 0 0 1 -3.98292 0
2 121 -1.43325 4.29975 -10.0328 0 0 1 -4.39369 0
2 133 -2.8665 5.733 -11.466 0 0 1 -4.25793 0
1 123 1.43325 4.29975 -10.0328 0 0 1 -4.15259 0
1 135 0 5.733 -11.466 0 0 1 -3.98254 0
1 137 2.8665 5.733 -11.466 0 0 1 -3.97692 0
1 125 4.29975 4.29975 -10.0328 0 0 1 -4.12679 0
1 139 5.733 5.733 -11.466 0 0 1 -4.01493 0
2 127 7.16625 4.29975 -10.0328 0 0 1 -4.25394 0
1 141 8.5995 5.733 -11.466 0 0 1 -3.16967 0
2 130 -7.16625 7.16625 -10.0328 0 0 1 -4.2368 0
2 142 -8.5995 8.5995 -11.466 0 0 1 -2.74394 0
1 132 -4.29975 7.16625 -10.0328 0 0 1 -4.19232 0
2 144 -5.733 8.5995 -11.466 0 0 1 -3.81005 0
1 134 -1.43325 7.16625 -10.0328 0 0 1 -4.07481 0
2 146 -2.8665 8.5995 -11.466 0 0 1 -3.82204 0
1 136 1.43325 7.16625 -10.0328 0 0 1 -4.19034 0
2 148 0 8.5995 -11.466 0 0 1 -3.77233 0
1 150 2.8665 8.5995 -11.466 0 0 1 -3.55392 0
1 138 4.29975 7.16625 -10.0328 0 0 1 -4.14533 0
1 152 5.733 8.5995 -11.466 0 0 1 -3.54653 0
1 140 7.16625 7.16625 -10.0328 0 0 1 -3.9144 0
2 154 8.5995 8.5995 -11.466 0 0 1 -2.73042 0
2 143 -7.16625 10.0328 -10.0328 0 0 1 -3.64168 0
1 145 -4.29975 10.0328 -10.0328 0 0 1 -3.47963 0
2 147 -1.43325 10.0328 -10.0328 0 0 1 -3.79326 0
1 149 1.43325 10.0328 -10.0328 0 0 1 -3.57411 0
1 151 4.29975 10.0328 -10.0328 0 0 1 -3.57911 0
2 153 7.16625 10.0328 -10.0328 0 0 1 -3.6103 0
2 155 -7.16625 -12.8992 -7.16625 0 0 1 -3.1377 0
1 156 -4.29975 -12.8992 -7.16625 0 0 1 -3.24886 0
1 157 -1.43325 -12.8992 -7.16625 0 0 1 -3.2131 0
1 158 1.43325 -12.8992 -7.16625 0 0 1 -3.27651 0
1 159 4.29975 -12.8992 -7.16625 0 0 1 -3.25979 0
1 160 7.16625 -12.8992 -7.16625 0 0 1 -3.00668 0
1 161 -8.5995 -11.466 -8.5995 0 0 1 -2.8552 0
1 162 -7.16625 -10.0328 -7.16625 0 0 1 -3.96422 0
1 163 -5.733 -11.466 -8.5995 0 0 1 -3.54653 0
1 164 -4.29975 -10.0328 -7.16625 0 0 1 -4.08871 0
2 165 -2.8665 -11.466 -8.5995 0 0 1 -3.77512 0
2 166 -1.43325 -10.0328 -7.16625 0 0 1 -4.35053 0
1 167 0 -11.466 -8.5995 0 0 1 -3.52992 0
1 168 1.43325 -10.0328 -7.16625 0 0 1 -4.10905 0
1 169 2.8665 -11.466 -8.5995 0 0 1 -3.57587 0
1 170 4.29975 -10.0328 -7.16625 0 0 1 -4.22183 0
1 171 5.733 -11.466 -8.5995 0 0 1 -3.53083 0
1 172 7.16625 -10.0328 -7.16625 0 0 1 -3.97511 0
2 173 8.5995 -11.466 -8.5995 0 0 1 -2.81065 0
1 174 -8.5995 -8.5995 -8.5995 0 0 1 -3.33722 0
1 175 -7.16625 -7.16625 -7.16625 0 0 1 -3.95207 0
1 176 -5.733 -8.5995 -8.5995 0 0 1 -4.18555 0
1 177 -4.29975 -7.16625 -7.16625 0 0 1 -4.21351 0
1 178 -2.8665 -8.5995 -8.5995 0 0 1 -4.08267 0
1 179 -1.43325 -7.16625 -7.16625 0 0 1 -4.12493 0
2 180 0 -8.5995 -8.5995 0 0 1 -4.39174 0
1 181 1.43325 -7.16625 -7.16625 0 0 1 -4.25398 0
2 182 2.8665 -8.5995 -8.5995 0 0 1 -4.39297 0
1 183 4.29975 -7.16625 -7.16625 0 0 1 -4.04633 0
1 184 5.733 -8.5995 -8.5995 0 0 1 -4.15058 0
2 185 7.16625 -7.16625 -7.16625 0 0 1 -4.2243 0
1 186 8.5995 -8.5995 -8.5995 0 0 1 -3.27215 0
1 187 -8.5995 -5.733 -8.5995 0 0 1 -3.4753 0
1 188 -7.16625 -4.29975 -7.16625 0 0 1 -4.05614 0
1 189 -5.733 -5.733 -8.5995 0 0 1 -4.14465 0
1 190 -4.29975 -4.29975 -7.16625 0 0 1 -4.17508 0
1 191 -2.8665 -5.733 -8.5995 0 0 1 -4.20333 0
1 192 -1.43325 -4.29975 -7.16625 0 0 1 -4.23042 0
1 193 0 -5.733 -8.5995 0 0 1 -4.12229 0
1 194 1.43325 -4.29975 -7.16625 0 0 1 -4.12602 0
2 195 2.8665 -5.733 -8.5995 0 0 1 -4.41344 0
2 196 4.29975 -4.29975 -7.16625 0 0 1 -4.35696 0
2 197 5.733 -5.733 -8.5995 0 0 1 -4.38502 0
2 198 7.16625 -4.29975 -7.16625 0 0 1 -4.27647 0
2 199 8.5995 -5.733 -8.5995 0 0 1 -3.48576 0
1 200 -8.5995 -2.8665 -8.5995 0 0 1 -3.36842 0
1 201 -7.16625 -1.43325 -7.16625 0 0 1 -3.95938 0
2 202 -5.733 -2.8665 -8.5995 0 0 1 -4.41376 0
1 203 -4.29975 -1.43325 -7.16625 0 0 1 -4.14596 0
2 204 -2.8665 -2.8665 -8.5995 0 0 1 -4.42149 0
1 205 -1.43325 -1.43325 -7.16625 0 0 1 -4.20165 0
1 206 0 -2.8665 -8.5995 0 0 1 -4.1113 0
1 207 1.43325 -1.43325 -7.16625 0 0 1 -4.14367 0
2 208 2.8665 -2.8665 -8.5995 0 0 1 -4.37964 0
1 209 4.29975 -1.43325 -7.16625 0 0 1 -4.10677 0
2 210 5.733 -2.8665 -8.5995 0 0 1 -4.39315 0
2 211 7.16625 -1.43325 -7.16625 0 0 1 -4.21649 0
1 212 8.5995 -2.8665 -8.5995 0 0 1 -3.32164 0
1 213 -8.5995 0 -8.5995 0 0 1 -3.42026 0
1 214 -7.16625 1.43325 -7.16625 0 0 1 -3.96233 0
1 226 -8.5995 2.8665 -8.5995 0 0 1 -3.35985 0
1 215 -5.733 0 -8.5995 0 0 1 -4.15271 0
2 216 -4.29975 1.43325 -7.16625 0 0 1 -4.37971 0
1 228 -5.733 2.8665 -8.5995 0 0 1 -4.18676 0
1 217 -2.8665 0 -8.5995 0 0 1 -4.11136 0
1 218 -1.43325 1.43325 -7.16625 0 0 1 -4.06387 0
2 230 -2.8665 2.8665 -8.5995 0 0 1 -4.38932 0
2 219 0 0 -8.5995 0 0 1 -4.39652 0
2 220 1.43325 1.43325 -7.16625 0 0 1 -4.36052 0
2 221 2.8665 0 -8.5995 0 0 1 -4.39327 0
2 232 0 2.8665 -8.5995 0 0 1 -4.3844 0
2 234 2.8665 2.8665 -8.5995 0 0 1 -4.39693 0
2 222 4.29975 1.43325 -7.16625 0 0 1 -4.39976 0
2 223 5.733 0 -8.5995 0 0 1 -4.38774 0
1 236 5.733 2.8665 -8.5995 0 0 1 -4.05617 0
1 224 7.16625 1.43325 -7.16625 0 0 1 -3.87778 0
1 225 8.5995 0 -8.5995 0 0 1 -3.32339 0
2 238 8.5995 2.8665 -8.5995 0 0 1 -3.46159 0
1 227 -7.16625 4.29975 -7.16625 0 0 1 -4.01076 0
2 239 -8.5995 5.733 -8.5995 0 0 1 -3.4836 0
1 229 -4.29975 4.29975 -7.16625 0 0 1 -4.19409 0
1 241 -5.733 5.733 -8.5995 0 0 1 -4.19822 0
1 231 -1.43325 4.29975 -7.16625 0 0 1 -4.15813 0
1 243 -2.8665 5.733 -8.5995 0 0 1 -4.14258 0
1 233 1.43325 4.29975 -7.16625 0 0 1 -4.16743 0
1 245 0 5.733 -8.5995 0 0 1 -4.14732 0
2 247 2.8665 5.733 -8.5995 0 0 1 -4.40459 0
2 235 4.29975 4.29975 -7.16625 0 0 1 -4.4138 0
1 249 5.733 5.733 -8.5995 0 0 1 -4.14106 0
2 237 7.16625 4.29975 -7.16625 0 0 1 -4.23653 0
2 251 8.5995 5.733 -8.5995 0 0 1 -3.50257 0
1 240 -7.16625 7.16625 -7.16625 0 0 1 -4.02151 0
1 252 -8.5995 8.5995 -8.5995 0 0 1 -3.35531 0
1 242 -4.29975 7.16625 -7.16625 0 0 1 -4.13408 0
1 254 -5.733 8.5995 -8.5995 0 0 1 -4.13477 0
1 244 -1.43325 7.16625 -7.16625 0 0 1 -4.20719 0
1 256 -2.8665 8.5995 -8.5995 0 0 1 -4.14734 0
1 246 1.43325 7.16625 -7.16625 0 0 1 -4.1552 0
1 258 0 8.5995 -8.5995 0 0 1 -4.17504 0
1 260 2.8665 8.5995 -8.5995 0 0 1 -4.16943 0
2 248 4.29975 7.16625 -7.16625 0 0 1 -4.41058 0
1 262 5.733 8.5995 -8.5995 0 0 1 -4.18744 0
1 250 7.16625 7.16625 -7.16625 0 0 1 -3.97036 0
1 264 8.5995 8.5995 -8.5995 0 0 1 -3.31198 0
1 253 -7.16625 10.0328 -7.16625 0 0 1 -3.85746 0
1 265 -8.5995 11.466 -8.5995 0 0 1 -2.84178 0
2 255 -4.29975 10.0328 -7.16625 0 0 1 -4.34656 0
1 267 -5.733 11.466 -8.5995 0 0 1 -3.60419 0
1 257 -1.43325 10.0328 -7.16625 0 0 1 -4.13486 0
1 269 -2.8665 11.466 -8.5995 0 0 1 -3.56327 0
1 259 1.43325 10.0328 -7.16625 0 0 1 -4.17747 0
1 271 0 11.466 -8.5995 0 0 1 -3.61197 0
1 273 2.8665 11.466 -8.5995 0 0 1 -3.56655 0
1 261 4.29975 10.0328 -7.16625 0 0 1 -4.18081 0
2 275 5.733 11.466 -8.5995 0 0 1 -3.82468 0
1 263 7.16625 10.0328 -7.16625 0 0 1 -3.9793 0
2 277 8.5995 11.466 -8.5995 0 0 1 -2.77526 0
2 266 -7.16625 12.8992 -7.16625 0 0 1 -3.13369 0
1 268 -4.29975 12.8992 -7.16625 0 0 1 -3.1898 0
1 270 -1.43325 12.8992 -7.16625 0 0 1 -3.23458 0
1 272 1.43325 12.8992 -7.16625 0 0 1 -3.28086 0
1 274 4.29975 12.8992 -7.16625 0 0 1 -3.24618 0
1 276 7.16625 12.8992 -7.16625 0 0 1 -3.05864 0
2 278 -7.16625 -12.8992 -4.29975 0 0 1 -3.78571 0
1 279 -4.29975 -12.8992 -4.29975 0 0 1 -3.65639 0
1 280 -1.43325 -12.8992 -4.29975 0 0 1 -3.79355 0
1 281 1.43325 -12.8992 -4.29975 0 0 1 -3.73014 0
1 282 4.29975 -12.8992 -4.29975 0 0 1 -3.68482 0
2 283 7.16625 -12.8992 -4.29975 0 0 1 -3.74186 0
1 284 -8.5995 -11.466 -5.733 0 0 1 -3.17761 0
1 285 -7.16625 -10.0328 -4.29975 0 0 1 -3.9233 0
1 286 -5.733 -11.466 -5.733 0 0 1 -4.02662 0
2 287 -4.29975 -10.0328 -4.29975 0 0 1 -4.39342 0
1 288 -2.8665 -11.466 -5.733 0 0 1 -3.96131 0
1 289 -1.43325 -10.0328 -4.29975 0 0 1 -4.06099 0
1 290 0 -11.466 -5.733 0 0 1 -4.07643 0
2 291 1.43325 -10.0328 -4.29975 0 0 1 -4.39192 0
1 292 2.8665 -11.466 -5.733 0 0 1 -3.9755 0
1 293 4.29975 -10.0328 -4.29975 0 0 1 -4.10717 0
2 294 5.733 -11.466 -5.733 0 0 1 -4.26769 0
1 295 7.16625 -10.0328 -4.29975 0 0 1 -3.96996 0
2 296 8.5995 -11.466 -5.733 0 0 1 -3.36136 0
2 297 -8.5995 -8.5995 -5.733 0 0 1 -3.52348 0
2 298 -7.16625 -7.16625 -4.29975 0 0 1 -4.20366 0
2 299 -5.733 -8.5995 -5.733 0 0 1 -4.41869 0
2 300 -4.29975 -7.16625 -4.29975 0 0 1 -4.4192 0
2 301 -2.8665 -8.5995 -5.733 0 0 1 -4.37229 0
2 302 -1.43325 -7.16625 -4.29975 0 0 1 -4.38189 0
1 303 0 -8.5995 -5.733 0 0 1 -4.14579 0
1 304 1.43325 -7.16625 -4.29975 0 0 1 -4.04547 0
1 305 2.8665 -8.5995 -5.733 0 0 1 -4.15077 0
2 306 4.29975 -7.16625 -4.29975 0 0 1 -4.37433 0
1 307 5.733 -8.5995 -5.733 0 0 1 -4.14574 0
1 308 7.16625 -7.16625 -4.29975 0 0 1 -3.91604 0
2 309 8.5995 -8.5995 -5.733 0 0 1 -3.50619 0
1 310 -8.5995 -5.733 -5.733 0 0 1 -3.3004 0
1 311 -7.16625 -4.29975 -4.29975 0 0 1 -3.90093 0
2 312 -5.733 -5.733 -5.733 0 0 1 -4.38766 0
2 313 -4.29975 -4.29975 -4.29975 0 0 1 -4.37608 0
1 314 -2.8665 -5.733 -5.733 0 0 1 -4.15796 0
1 315 -1.43325 -4.29975 -4.29975 0 0 1 -4.09267 0
1 316 0 -5.733 -5.733 0 0 1 -4.15084 0
1 317 1.43325 -4.29975 -4.29975 0 0 1 -4.249 0
2 318 2.8665 -5.733 -5.733 0 0 1 -4.3898 0
1 319 4.29975 -4.29975 -4.29975 0 0 1 -4.09176 0
1 320 5.733 -5.733 -5.733 0 0 1 -4.15528 0
2 321 7.16625 -4.29975 -4.29975 0 0 1 -4.24384 0
1 322 8.5995 -5.733 -5.733 0 0 1 -3.34413 0
2 323 -8.5995 -2.8665 -5.733 0 0 1 -3.51831 0
2 324 -7.16625 -1.43325 -4.29975 0 0 1 -4.19909 0
2 325 -5.733 -2.8665 -5.733 0 0 1 -4.42877 0
2 326 -4.29975 -1.43325 -4.29975 0 0 1 -4.42485 0
1 327 -2.8665 -2.8665 -5.733 0 0 1 -4.16364 0
2 328 -1.43325 -1.43325 -4.29975 0 0 1 -4.40333 0
1 329 0 -2.8665 -5.733 0 0 1 -4.15999 0
1 330 1.43325 -1.43325 -4.29975 0 0 1 -4.19615 0
1 331 2.8665 -2.8665 -5.733 0 0 1 -4.16318 0
1 332 4.29975 -1.43325 -4.29975 0 0 1 -4.14263 0
1 333 5.733 -2.8665 -5.733 0 0 1 -4.11526 0
1 334 7.16625 -1.43325 -4.29975 0 0 1 -3.9702 0
1 335 8.5995 -2.8665 -5.733 0 0 1 -3.41238 0
2 336 -8.5995 0 -5.733 0 0 1 -3.5551 0
1 337 -7.16625 1.43325 -4.29975 0 0 1 -3.9635 0
2 349 -8.5995 2.8665 -5.733 0 0 1 -3.54453 0
2 338 -5.733 0 -5.733 0 0 1 -4.38606 0
1 339 -4.29975 1.43325 -4.29975 0 0 1 -4.13227 0
1 351 -5.733 2.8665 -5.733 0 0 1 -4.1412 0
1 340 -2.8665 0 -5.733 0 0 1 -4.14505 0
2 341 -1.43325 1.43325 -4.29975 0 0 1 -4.41499 0
1 353 -2.8665 2.8665 -5.733 0 0 1 -4.18293 0
2 342 0 0 -5.733 0 0 1 -4.38874 0
1 343 1.43325 1.43325 -4.29975 0 0 1 -4.0689 0
1 344 2.8665 0 -5.733 0 0 1 -4.10412 0
1 355 0 2.8665 -5.733 0 0 1 -4.13918 0
1 357 2.8665 2.8665 -5.733 0 0 1 -4.18669 0
2 345 4.29975 1.43325 -4.29975 0 0 1 -4.38712 0
2 346 5.733 0 -5.733 0 0 1 -4.41562 0
1 359 5.733 2.8665 -5.733 0 0 1 -4.19931 0
1 347 7.16625 1.43325 -4.29975 0 0 1 -3.96226 0
2 348 8.5995 0 -5.733 0 0 1 -3.50946 0
1 361 8.5995 2.8665 -5.733 0 0 1 -3.28496 0
1 350 -7.16625 4.29975 -4.29975 0 0 1 -4.00864 0
2 362 -8.5995 5.733 -5.733 0 0 1 -3.54498 0
1 352 -4.29975 4.29975 -4.29975 0 0 1 -4.11109 0
1 364 -5.733 5.733 -5.733 0 0 1 -4.14945 0
2 354 -1.43325 4.29975 -4.29975 0 0 1 -4.40418 0
1 366 -2.8665 5.733 -5.733 0 0 1 -4.18729 0
1 356 1.43325 4.29975 -4.29975 0 0 1 -4.14042 0
1 368 0 5.733 -5.733 0 0 1 -4.18948 0
1 370 2.8665 5.733 -5.733 0 0 1 -4.1713 0
2 358 4.29975 4.29975 -4.29975 0 0 1 -4.43807 0
1 372 5.733 5.733 -5.733 0 0 1 -4.1875 0
1 360 7.16625 4.29975 -4.29975 0 0 1 -3.97301 0
2 374 8.5995 5.733 -5.733 0 0 1 -3.52302 0
1 363 -7.16625 7.16625 -4.29975 0 0 1 -3.95678 0
1 375 -8.5995 8.5995 -5.733 0 0 1 -3.32166 0
2 365 -4.29975 7.16625 -4.29975 0 0 1 -4.37798 0
2 377 -5.733 8.5995 -5.733 0 0 1 -4.39669 0
2 367 -1.43325 7.16625 -4.29975 0 0 1 -4.40903 0
2 379 -2.8665 8.5995 -5.733 0 0 1 -4.39947 0
2 369 1.43325 7.16625 -4.29975 0 0 1 -4.40245 0
1 381 0 8.5995 -5.733 0 0 1 -4.13402 0
1 383 2.8665 8.5995 -5.733 0 0 1 -4.23864 0
2 371 4.29975 7.16625 -4.29975 0 0 1 -4.4214 0
1 385 5.733 8.5995 -5.733 0 0 1 -4.13621 0
1 373 7.16625 7.16625 -4.29975 0 0 1 -4.00809 0
1 387 8.5995 8.5995 -5.733 0 0 1 -3.45041 0
2 376 -7.16625 10.0328 -4.29975 0 0 1 -4.23366 0
1 388 -8.5995 11.466 -5.733 0 0 1 -3.25087 0
1 378 -4.29975 10.0328 -4.29975 0 0 1 -4.12259 0
1 390 -5.733 11.466 -5.733 0 0 1 -3.96372 0
1 380 -1.43325 10.0328 -4.29975 0 0 1 -4.0682 0
2 392 -2.8665 11.466 -5.733 0 0 1 -4.2737 0
2 382 1.43325 10.0328 -4.29975 0 0 1 -4.405 0
1 394 0 11.466 -5.733 0 0 1 -4.01647 0
1 396 2.8665 11.466 -5.733 0 0 1 -4.01197 0
1 384 4.29975 10.0328 -4.29975 0 0 1 -4.14577 0
2 398 5.733 11.466 -5.733 0 0 1 -4.27185 0
1 386 7.16625 10.0328 -4.29975 0 0 1 -4.04077 0
1 400 8.5995 11.466 -5.733 0 0 1 -3.1472 0
2 389 -7.16625 12.8992 -4.29975 0 0 1 -3.83312 0
1 391 -4.29975 12.8992 -4.29975 0 0 1 -3.66455 0
2 393 -1.43325 12.8992 -4.29975 0 0 1 -3.94024 0
1 395 1.43325 12.8992 -4.29975 0 0 1 -3.68555 0
1 397 4.29975 12.8992 -4.29975 0 0 1 -3.77005 0
1 399 7.16625 12.8992 -4.29975 0 0 1 -3.52969 0
1 401 -8.5995 -14.3325 -2.8665 0 0 1 -2.50984 0
2 402 -7.16625 -12.8992 -1.43325 0 0 1 -4.10288 0
2 403 -5.733 -14.3325 -2.8665 0 0 1 -3.24703 0
2 404 -4.29975 -12.8992 -1.43325 0 0 1 -4.25758 0
1 405 -2.8665 -14.3325 -2.8665 0 0 1 -3.21232 0
1 406 -1.43325 -12.8992 -1.43325 0 0 1 -4.01004 0
1 407 0 -14.3325 -2.8665 0 0 1 -3.23785 0
1 408 1.43325 -12.8992 -1.43325 0 0 1 -3.96235 0
2 409 2.8665 -14.3325 -2.8665 0 0 1 -3.32971 0
2 410 4.29975 -12.8992 -1.43325 0 0 1 -4.22687 0
1 411 5.733 -14.3325 -2.8665 0 0 1 -3.15524 0
2 412 7.16625 -12.8992 -1.43325 0 0 1 -4.0986 0
2 413 8.5995 -14.3325 -2.8665 0 0 1 -2.3785 0
2 414 -8.5995 -11.466 -2.8665 0 0 1 -3.48584 0
1 415 -7.16625 -10.0328 -1.43325 0 0 1 -3.93914 0
1 416 -5.733 -11.466 -2.8665 0 0 1 -4.1224 0
2 417 -4.29975 -10.0328 -1.43325 0 0 1 -4.42023 0
1 418 -2.8665 -11.466 -2.8665 0 0 1 -4.21091 0
1 419 -1.43325 -10.0328 -1.43325 0 0 1 -4.12398 0
1 420 0 -11.466 -2.8665 0 0 1 -4.16959 0
2 421 1.43325 -10.0328 -1.43325 0 0 1 -4.39964 0
2 422 2.8665 -11.466 -2.8665 0 0 1 -4.3786 0
2 423 4.29975 -10.0328 -1.43325 0 0 1 -4.40907 0
1 424 5.733 -11.466 -2.8665 0 0 1 -4.0989 0
2 425 7.16625 -10.0328 -1.43325 0 0 1 -4.25427 0
2 426 8.5995 -11.466 -2.8665 0 0 1 -3.47318 0
2 427 -8.5995 -8.5995 -2.8665 0 0 1 -3.53994 0
1 428 -7.16625 -7.16625 -1.43325 0 0 1 -3.95524 0
1 429 -5.733 -8.5995 -2.8665 0 0 1 -4.11265 0
1 430 -4.29975 -7.16625 -1.43325 0 0 1 -4.15575 0
1 431 -2.8665 -8.5995 -2.8665 0 0 1 -4.15082 0
1 432 -1.43325 -7.16625 -1.43325 0 0 1 -4.15513 0
1 433 0 -8.5995 -2.8665 0 0 1 -4.13764 0
2 434 1.43325 -7.16625 -1.43325 0 0 1 -4.39306 0
1 435 2.8665 -8.5995 -2.8665 0 0 1 -4.18895 0
1 436 4.29975 -7.16625 -1.43325 0 0 1 -4.07157 0
1 437 5.733 -8.5995 -2.8665 0 0 1 -4.23343 0
1 438 7.16625 -7.16625 -1.43325 0 0 1 -4.01746 0
1 439 8.5995 -8.5995 -2.8665 0 0 1 -3.36316 0
2 440 -8.5995 -5.733 -2.8665 0 0 1 -3.52171 0
1 441 -7.16625 -4.29975 -1.43325 0 0 1 -4.06369 0
2 442 -5.733 -5.733 -2.8665 0 0 1 -4.39803 0
1 443 -4.29975 -4.29975 -1.43325 0 0 1 -4.13491 0
1 444 -2.8665 -5.733 -2.8665 0 0 1 -4.11116 0
1 445 -1.43325 -4.29975 -1.43325 0 0 1 -4.23833 0
2 446 0 -5.733 -2.8665 0 0 1 -4.39213 0
1 447 1.43325 -4.29975 -1.43325 0 0 1 -4.19133 0
1 448 2.8665 -5.733 -2.8665 0 0 1 -4.14164 0
1 449 4.29975 -4.29975 -1.43325 0 0 1 -4.15728 0
1 450 5.733 -5.733 -2.8665 0 0 1 -4.12803 0
1 451 7.16625 -4.29975 -1.43325 0 0 1 -4.00191 0
1 452 8.5995 -5.733 -2.8665 0 0 1 -3.4601 0
1 453 -8.5995 -2.8665 -2.8665 0 0 1 -3.29689 0
1 454 -7.16625 -1.43325 -1.43325 0 0 1 -3.87425 0
2 455 -5.733 -2.8665 -2.8665 0 0 1 -4.38668 0
2 456 -4.29975 -1.43325 -1.43325 0 0 1 -4.38589 0
1 457 -2.8665 -2.8665 -2.8665 0 0 1 -4.15337 0
1 458 -1.43325 -1.43325 -1.43325 0 0 1 -4.11573 0
2 459 0 -2.8665 -2.8665 0 0 1 -4.41148 0
1 460 1.43325 -1.43325 -1.43325 0 0 1 -4.10815 0
1 461 2.8665 -2.8665 -2.8665 0 0 1 -4.14726 0
2 462 4.29975 -1.43325 -1.43325 0 0 1 -4.35551 0
2 463 5.733 -2.8665 -2.8665 0 0 1 -4.39887 0
1 464 7.16625 -1.43325 -1.43325 0 0 1 -3.957 0
1 465 8.5995 -2.8665 -2.8665 0 0 1 -3.4073 0
2 466 -8.5995 0 -2.8665 0 0 1 -3.48483 0
2 467 -7.16625 1.43325 -1.43325 0 0 1 -4.25151 0
1 479 -8.5995 2.8665 -2.8665 0 0 1 -3.36161 0
1 468 -5.733 0 -2.8665 0 0 1 -4.08948 0
1 469 -4.29975 1.43325 -1.43325 0 0 1 -4.07589 0
1 481 -5.733 2.8665 -2.8665 0 0 1 -4.22298 0
1 470 -2.8665 0 -2.8665 0 0 1 -4.23525 0
2 471 -1.43325 1.43325 -1.43325 0 0 1 -4.39777 0
1 483 -2.8665 2.8665 -2.8665 0 0 1 -4.21575 0
1 472 0 0 -2.8665 0 0 1 -4.08396 0
2 473 1.43325 1.43325 -1.43325 0 0 1 -4.38577 0
1 474 2.8665 0 -2.8665 0 0 1 -4.1549 0
1 485 0 2.8665 -2.8665 0 0 1 -4.17344 0
1 487 2.8665 2.8665 -2.8665 0 0 1 -4.221 0
1 475 4.29975 1.43325 -1.43325 0 0 1 -3.98299 0
2 476 5.733 0 -2.8665 0 0 1 -4.40451 0
1 489 5.733 2.8665 -2.8665 0 0 1 -4.09689 0
2 477 7.16625 1.43325 -1.43325 0 0 1 -4.20327 0
1 478 8.5995 0 -2.8665 0 0 1 -3.34119 0
2 491 8.5995 2.8665 -2.8665 0 0 1 -3.52218 0
2 480 -7.16625 4.29975 -1.43325 0 0 1 -4.28267 0
1 492 -8.5995 5.733 -2.8665 0 0 1 -3.37432 0
2 482 -4.29975 4.29975 -1.43325 0 0 1 -4.38573 0
1 494 -5.733 5.733 -2.8665 0 0 1 -4.19065 0
1 484 -1.43325 4.29975 -1.43325 0 0 1 -4.11268 0
1 496 -2.8665 5.733 -2.8665 0 0 1 -4.14778 0
1 486 1.43325 4.29975 -1.43325 0 0 1 -4.16459 0
2 498 0 5.733 -2.8665 0 0 1 -4.40217 0
1 500 2.8665 5.733 -2.8665 0 0 1 -4.17344 0
2 488 4.29975 4.29975 -1.43325 0 0 1 -4.40269 0
1 502 5.733 5.733 -2.8665 0 0 1 -4.14834 0
1 490 7.16625 4.29975 -1.43325 0 0 1 -3.96083 0
2 504 8.5995 5.733 -2.8665 0 0 1 -3.54576 0
1 493 -7.16625 7.16625 -1.43325 0 0 1 -3.97658 0
2 505 -8.5995 8.5995 -2.8665 0 0 1 -3.49931 0
1 495 -4.29975 7.16625 -1.43325 0 0 1 -4.11116 0
2 507 -5.733 8.5995 -2.8665 0 0 1 -4.40394 0
1 497 -1.43325 7.16625 -1.43325 0 0 1 -4.13118 0
1 509 -2.8665 8.5995 -2.8665 0 0 1 -4.05443 0
1 499 1.43325 7.16625 -1.43325 0 0 1 -4.16548 0
2 511 0 8.5995 -2.8665 0 0 1 -4.3716 0
1 513 2.8665 8.5995 -2.8665 0 0 1 -4.14382 0
1 501 4.29975 7.16625 -1.43325 0 0 1 -4.15252 0
2 515 5.733 8.5995 -2.8665 0 0 1 -4.40024 0
1 503 7.16625 7.16625 -1.43325 0 0 1 -4.04771 0
1 517 8.5995 8.5995 -2.8665 0 0 1 -3.33435 0
2 506 -7.16625 10.0328 -1.43325 0 0 1 -4.24375 0
1 518 -8.5995 11.466 -2.8665 0 0 1 -3.34033 0
1 508 -4.29975 10.0328 -1.43325 0 0 1 -4.12513 0
1 520 -5.733 11.466 -2.8665 0 0 1 -4.1678 0
2 510 -1.43325 10.0328 -1.43325 0 0 1 -4.39261 0
1 522 -2.8665 11.466 -2.8665 0 0 1 -4.17069 0
2 512 1.43325 10.0328 -1.43325 0 0 1 -4.41044 0
1 524 0 11.466 -2.8665 0 0 1 -4.17355 0
1 526 2.8665 11.466 -2.8665 0 0 1 -4.19058 0
1 514 4.29975 10.0328 -1.43325 0 0 1 -4.19455 0
1 528 5.733 11.466 -2.8665 0 0 1 -4.00185 0
1 516 7.16625 10.0328 -1.43325 0 0 1 -3.94071 0
2 530 8.5995 11.466 -2.8665 0 0 1 -3.46984 0
2 519 -7.16625 12.8992 -1.43325 0 0 1 -4.11909 0
1 531 -8.5995 14.3325 -2.8665 0 0 1 -2.5444 0
2 521 -4.29975 12.8992 -1.43325 0 0 1 -4.26357 0
1 532 -5.733 14.3325 -2.8665 0 0 1 -3.23978 0
1 523 -1.43325 12.8992 -1.43325 0 0 1 -3.92771 0
1 533 -2.8665 14.3325 -2.8665 0 0 1 -3.26263 0
1 525 1.43325 12.8992 -1.43325 0 0 1 -4.01101 0
1 534 0 14.3325 -2.8665 0 0 1 -3.2105 0
1 535 2.8665 14.3325 -2.8665 0 0 1 -3.23694 0
1 527 4.29975 12.8992 -1.43325 0 0 1 -3.99178 0
2 536 5.733 14.3325 -2.8665 0 0 1 -3.29273 0
2 529 7.16625 12.8992 -1.43325 0 0 1 -4.08976 0
1 537 8.5995 14.3325 -2.8665 0 0 1 -2.51626 0
1 538 -8.5995 -14.3325 0 0 0 1 -2.79263 0
1 539 -7.16625 -12.8992 1.43325 0 0 1 -3.79854 0
1 675 -8.5995 -14.3325 2.8665 0 0 1 -2.57755 0
1 540 -5.733 -14.3325 0 0 0 1 -3.34835 0
1 541 -4.29975 -12.8992 1.43325 0 0 1 -3.94008 0
2 677 -5.733 -14.3325 2.8665 0 0 1 -3.30007 0
1 542 -2.8665 -14.3325 0 0 0 1 -3.44888 0
1 543 -1.43325 -12.8992 1.43325 0 0 1 -4.01716 0
1 679 -2.8665 -14.3325 2.8665 0 0 1 -3.21863 0
1 544 0 -14.3325 0 0 0 1 -3.42077 0
1 545 1.43325 -12.8992 1.43325 0 0 1 -3.9749 0
2 546 2.8665 -14.3325 0 0 0 1 -3.51735 0
1 681 0 -14.3325 2.8665 0 0 1 -3.22932 0
1 683 2.8665 -14.3325 2.8665 0 0 1 -3.18407 0
2 547 4.29975 -12.8992 1.43325 0 0 1 -4.2463 0
2 548 5.733 -14.3325 0 0 0 1 -3.48033 0
1 685 5.733 -14.3325 2.8665 0 0 1 -3.1837 0
1 549 7.16625 -12.8992 1.43325 0 0 1 -3.80082 0
2 550 8.5995 -14.3325 0 0 0 1 -2.68194 0
2 687 8.5995 -14.3325 2.8665 0 0 1 -2.43229 0
2 551 -8.5995 -11.466 0 0 0 1 -3.48978 0
2 552 -7.16625 -10.0328 1.43325 0 0 1 -4.24734 0
1 688 -8.5995 -11.466 2.8665 0 0 1 -3.40102 0
1 553 -5.733 -11.466 0 0 0 1 -4.19186 0
2 554 -4.29975 -10.0328 1.43325 0 0 1 -4.42257 0
1 690 -5.733 -11.466 2.8665 0 0 1 -4.069 0
1 555 -2.8665 -11.466 0 0 0 1 -4.17551 0
2 556 -1.43325 -10.0328 1.43325 0 0 1 -4.38077 0
1 692 -2.8665 -11.466 2.8665 0 0 1 -4.18012 0
1 557 0 -11.466 0 0 0 1 -4.0999 0
1 558 1.43325 -10.0328 1.43325 0 0 1 -4.07236 0
2 559 2.8665 -11.466 0 0 0 1 -4.38091 0
2 694 0 -11.466 2.8665 0 0 1 -4.37659 0
2 696 2.8665 -11.466 2.8665 0 0 1 -4.39235 0
2 560 4.29975 -10.0328 1.43325 0 0 1 -4.38041 0
1 561 5.733 -11.466 0 0 0 1 -4.10807 0
1 698 5.733 -11.466 2.8665 0 0 1 -4.14066 0
1 562 7.16625 -10.0328 1.43325 0 0 1 -3.92761 0
2 563 8.5995 -11.466 0 0 0 1 -3.5037 0
1 700 8.5995 -11.466 2.8665 0 0 1 -3.30672 0
1 564 -8.5995 -8.5995 0 0 0 1 -3.36843 0
2 565 -7.16625 -7.16625 1.43325 0 0 1 -4.26373 0
1 701 -8.5995 -8.5995 2.8665 0 0 1 -3.39446 0
1 566 -5.733 -8.5995 0 0 0 1 -4.14367 0
1 567 -4.29975 -7.16625 1.43325 0 0 1 -4.15877 0
2 703 -5.733 -8.5995 2.8665 0 0 1 -4.36651 0
2 568 -2.8665 -8.5995 0 0 0 1 -4.40549 0
1 569 -1.43325 -7.16625 1.43325 0 0 1 -4.1373 0
1 705 -2.8665 -8.5995 2.8665 0 0 1 -4.11122 0
2 570 0 -8.5995 0 0 0 1 -4.35797 0
2 571 1.43325 -7.16625 1.43325 0 0 1 -4.40546 0
1 572 2.8665 -8.5995 0 0 0 1 -4.09419 0
1 707 0 -8.5995 2.8665 0 0 1 -4.01544 0
2 709 2.8665 -8.5995 2.8665 0 0 1 -4.36624 0
2 573 4.29975 -7.16625 1.43325 0 0 1 -4.38395 0
1 574 5.733 -8.5995 0 0 0 1 -4.13748 0
2 711 5.733 -8.5995 2.8665 0 0 1 -4.39479 0
1 575 7.16625 -7.16625 1.43325 0 0 1 -3.96844 0
1 576 8.5995 -8.5995 0 0 0 1 -3.42264 0
1 713 8.5995 -8.5995 2.8665 0 0 1 -3.37697 0
1 577 -8.5995 -5.733 0 0 0 1 -3.41758 0
1 578 -7.16625 -4.29975 1.43325 0 0 1 -3.96104 0
1 714 -8.5995 -5.733 2.8665 0 0 1 -3.45653 0
1 579 -5.733 -5.733 0 0 0 1 -4.11823 0
1 580 -4.29975 -4.29975 1.43325 0 0 1 -4.14778 0
1 716 -5.733 -5.733 2.8665 0 0 1 -4.0969 0
2 581 -2.8665 -5.733 0 0 0 1 -4.41422 0
1 582 -1.43325 -4.29975 1.43325 0 0 1 -4.22917 0
2 718 -2.8665 -5.733 2.8665 0 0 1 -4.41065 0
1 583 0 -5.733 0 0 0 1 -4.06032 0
1 584 1.43325 -4.29975 1.43325 0 0 1 -4.10702 0
1 585 2.8665 -5.733 0 0 0 1 -4.19136 0
2 720 0 -5.733 2.8665 0 0 1 -4.38389 0
1 722 2.8665 -5.733 2.8665 0 0 1 -4.06009 0
2 586 4.29975 -4.29975 1.43325 0 0 1 -4.40764 0
2 587 5.733 -5.733 0 0 0 1 -4.39545 0
2 724 5.733 -5.733 2.8665 0 0 1 -4.40188 0
1 588 7.16625 -4.29975 1.43325 0 0 1 -4.01098 0
1 589 8.5995 -5.733 0 0 0 1 -3.37155 0
2 726 8.5995 -5.733 2.8665 0 0 1 -3.53667 0
1 590 -8.5995 -2.8665 0 0 0 1 -3.42936 0
2 591 -7.16625 -1.43325 1.43325 0 0 1 -4.24318 0
1 727 -8.5995 -2.8665 2.8665 0 0 1 -3.31309 0
2 592 -5.733 -2.8665 0 0 0 1 -4.40978 0
2 593 -4.29975 -1.43325 1.43325 0 0 1 -4.40596 0
2 729 -5.733 -2.8665 2.8665 0 0 1 -4.36672 0
1 594 -2.8665 -2.8665 0 0 0 1 -4.16287 0
1 595 -1.43325 -1.43325 1.43325 0 0 1 -4.15728 0
1 731 -2.8665 -2.8665 2.8665 0 0 1 -4.11382 0
1 596 0 -2.8665 0 0 0 1 -4.14823 0
2 597 1.43325 -1.43325 1.43325 0 0 1 -4.39775 0
1 598 2.8665 -2.8665 0 0 0 1 -4.20143 0
1 733 0 -2.8665 2.8665 0 0 1 -4.14908 0
1 735 2.8665 -2.8665 2.8665 0 0 1 -4.19487 0
2 599 4.29975 -1.43325 1.43325 0 0 1 -4.40973 0
1 600 5.733 -2.8665 0 0 0 1 -4.06178 0
2 737 5.733 -2.8665 2.8665 0 0 1 -4.40071 0
1 601 7.16625 -1.43325 1.43325 0 0 1 -3.96634 0
1 602 8.5995 -2.8665 0 0 0 1 -3.43761 0
2 739 8.5995 -2.8665 2.8665 0 0 1 -3.547 0
1 603 -8.5995 0 0 0 0 1 -3.33887 0
2 604 -7.16625 1.43325 1.43325 0 0 1 -4.27226 0
1 616 -8.5995 2.8665 0 0 0 1 -3.44523 0
2 740 -8.5995 0 2.8665 0 0 1 -3.42271 0
1 753 -8.5995 2.8665 2.8665 0 0 1 -3.30627 0
1 605 -5.733 0 0 0 0 1 -4.19155 0
1 606 -4.29975 1.43325 1.43325 0 0 1 -4.18585 0
1 618 -5.733 2.8665 0 0 0 1 -4.21607 0
1 742 -5.733 0 2.8665 0 0 1 -4.03989 0
1 755 -5.733 2.8665 2.8665 0 0 1 -4.19766 0
1 607 -2.8665 0 0 0 0 1 -4.12036 0
1 608 -1.43325 1.43325 1.43325 0 0 1 -4.10441 0
1 620 -2.8665 2.8665 0 0 0 1 -4.17129 0
2 744 -2.8665 0 2.8665 0 0 1 -4.37121 0