LAMMPS (3 Aug 2023 - Development - patch_2Aug2023-695-ged6c603488-modified)
OMP_NUM_THREADS environment is not set. Defaulting to 1 thread. (src/comm.cpp:98)
  using 1 OpenMP thread(s) per MPI task
package omp 2
set 2 OpenMP thread(s) per MPI task
using multi-threaded neighbor list subroutines
# bcc iron in a 3d periodic box

clear
OMP_NUM_THREADS environment is not set. Defaulting to 1 thread. (src/comm.cpp:98)
  using 1 OpenMP thread(s) per MPI task
package omp 2
set 2 OpenMP thread(s) per MPI task
using multi-threaded neighbor list subroutines
units 		metal
atom_style 	spin

# dimension 	3
boundary 	p p p

# necessary for the serial algorithm (sametag)
atom_modify 	map array

region 		box block -25 25 -25 25 -25 25 units box
create_box	2 box
Created orthogonal box = (-25 -25 -25) to (25 25 25)
  1 by 2 by 2 MPI processor grid

lattice		bcc 2.8665
Lattice spacing in x,y,z = 2.8665 2.8665 2.8665
region ns cylinder x 0 0 10 -22.499999999999996 22.499999999999996 units box
create_atoms	1 region ns
Created 1067 atoms
  using lattice units in orthogonal box = (-25 -25 -25) to (25 25 25)
  create_atoms CPU = 0.001 seconds
group		Fe type 1
1067 atoms in group Fe

set group Fe type/ratio 2 0.35 250
Setting atom values ...
  373 settings made for type/ratio

group		Ni type 2
373 atoms in group Ni


mass		1 55.845 #Fe
mass		2 58.693 #Ni

set 		group Fe spin 2.2 0 0 1 #Fe
Setting atom values ...
WARNING: Set attribute spin is deprecated. Please use spin/atom instead. (src/set.cpp:280)
  1067 settings made for spin
set		group Ni spin 0.61 0 0 1 #Ni
Setting atom values ...
WARNING: Set attribute spin is deprecated. Please use spin/atom instead. (src/set.cpp:280)
  373 settings made for spin

pair_style 	hybrid/overlay eam/alloy spin/exchange 4.0
pair_coeff 	* * eam/alloy ../FeCuNi.eam.alloy Fe Ni
pair_coeff 	1 1 spin/exchange exchange 4.0 0.02726 0.2171 1.841 #FeFe
pair_coeff	1 2 spin/exchange exchange 4.0 0.00782 0.0001 1.37 #FeNi
pair_coeff	2 2 spin/exchange exchange 4.0 0.01066 0.00171 1.01282 #NiNi

neighbor 	0.5 bin
neigh_modify 	every 10 check yes delay 10

comm_style tiled
balance 0.1 rcb
Balancing ...
WARNING: Using spin pair style without nve/spin or neb/spin (src/SPIN/pair_spin.cpp:83)
Hybrid pair style last /omp style eam/alloy
Last active /omp style is pair_style eam/alloy
Neighbor list info ...
  update: every = 10 steps, delay = 10 steps, check = yes
  max neighbors/atom: 2000, page size: 100000
  master list distance cutoff = 6.1
  ghost atom cutoff = 6.1
  binsize = 3.05, bins = 17 17 17
  2 neighbor lists, perpetual/occasional/extra = 2 0 0
  (1) pair eam/alloy, perpetual
      attributes: half, newton on, omp
      pair build: half/bin/atomonly/newton/omp
      stencil: half/bin/3d
      bin: standard
  (2) pair spin/exchange, perpetual
      attributes: full, newton on, omp, cut 4.5
      pair build: full/bin/atomonly/omp
      stencil: full/bin/3d
      bin: standard
 rebalancing time: 0.004 seconds
  iteration count = 0
  initial/final maximal load/proc = 323 267
  initial/final imbalance factor  = 1.2108716 1.0009372

timestep 0.001

velocity 	all create 0 4928459 rot yes dist gaussian

compute 	out_mag    all spin
compute 	out_pe     all pe
compute 	out_ke     all ke
compute 	out_temp   all temp
compute     keAtom  all ke/atom
compute     peAtom  all pe/atom
compute     outsp all property/atom spx spy spz sp fmx fmy fmz

variable 	magx 	  equal c_out_mag[1]
variable	magy	  equal c_out_mag[2]
variable 	magz      equal c_out_mag[3]
variable 	magnorm   equal c_out_mag[4]
variable 	emag      equal c_out_mag[5]
variable 	tmag      equal c_out_mag[6]

                     #v_tmagFe #v_tmagNi v_magnorm v_magnormFe v_magnormNi v_emag ke pe etotal press
thermo_style    custom step temp v_tmag v_magx v_magy v_magz v_magnorm ke pe etotal press
thermo          500

fix temperatura all langevin 0 0 1 23136
fix b all langevin/spin 300 0.01 29481
fix c all nve/spin lattice frozen
fix d all momentum 10 linear 1 1 1 angular rescale
fix centrar all recenter INIT INIT INIT


dump 		dumpRun all custom 100000 iron.*.dump type id x y z c_outsp[1] c_outsp[2] c_outsp[3] c_peAtom c_keAtom

run     300000

CITE-CITE-CITE-CITE-CITE-CITE-CITE-CITE-CITE-CITE-CITE-CITE-CITE

Your simulation uses code contributions which should be cited:

- fix nve/spin command: doi:10.1016/j.jcp.2018.06.042

@article{tranchida2018massively,
title={Massively Parallel Symplectic Algorithm for Coupled Magnetic Spin    Dynamics and Molecular Dynamics},
author={Tranchida, J and Plimpton, S J and Thibaudeau, P and Thompson, A P},
journal={Journal of Computational Physics},
volume={372},
pages={406--425},
year={2018},
publisher={Elsevier}
doi={10.1016/j.jcp.2018.06.042}
}

CITE-CITE-CITE-CITE-CITE-CITE-CITE-CITE-CITE-CITE-CITE-CITE-CITE

Hybrid pair style last /omp style eam/alloy
Last active /omp style is pair_style eam/alloy
Per MPI rank memory allocation (min/avg/max) = 8.364 | 8.366 | 8.368 Mbytes
   Step          Temp          v_tmag         v_magx         v_magy         v_magz       v_magnorm        KinEng         PotEng         TotEng         Press     
         0   0              0              0              0              1              1              0             -4145.2549     -4145.2549     -10898.015    
       500   0              580.40595     -0.0013271691   0.0013738039   0.76688509     0.76688747     0             -4128.4898     -4128.4898     -10898.015    
      1000   0              690.53961     -0.036348857   -0.0033757336   0.6582149      0.65922643     0             -4123.6136     -4123.6136     -10898.015    
      1500   0              726.78772     -0.013625046    0.0037143054   0.611817       0.61197997     0             -4122.87       -4122.87       -10898.015    
      2000   0              696.98991     -0.010185556    0.012477833    0.55151354     0.55174869     0             -4121.415      -4121.415      -10898.015    
      2500   0              736.44439     -0.034530918    0.0015788604   0.52878466     0.52991329     0             -4121.011      -4121.011      -10898.015    
      3000   0              710.73908     -0.044296985   -0.031982771    0.52115885     0.52401495     0             -4121.0192     -4121.0192     -10898.015    
      3500   0              721.81918     -0.023297625   -0.012683018    0.50577601     0.50647114     0             -4120.6408     -4120.6408     -10898.015    
      4000   0              723.65655     -0.019755859    0.0020323558   0.48034929     0.48075967     0             -4119.5564     -4119.5564     -10898.015    
      4500   0              747.02982     -0.0047158405   0.013826639    0.4402588      0.44050111     0             -4118.5762     -4118.5762     -10898.015    
      5000   0              739.88596     -0.0043608785   0.011735021    0.42219907     0.42238464     0             -4118.3806     -4118.3806     -10898.015    
      5500   0              737.08853     -0.0067142015   0.011911606    0.41259707     0.41282358     0             -4118.5552     -4118.5552     -10898.015    
      6000   0              808.55707     -0.0044004161   0.010219381    0.39892653     0.39908167     0             -4118.0883     -4118.0883     -10898.015    
      6500   0              724.66635      0.018453632   -0.015189036    0.40278132     0.40348982     0             -4118.8948     -4118.8948     -10898.015    
      7000   0              755.36602      0.026764746   -0.0075706874   0.38462625     0.38563068     0             -4118.8192     -4118.8192     -10898.015    
      7500   0              726.05162      0.0022875839  -0.0042000381   0.37150865     0.37153943     0             -4118.0747     -4118.0747     -10898.015    
      8000   0              761.7073      -0.0066040439  -0.011927307    0.3762917      0.3765386      0             -4117.4478     -4117.4478     -10898.015    
      8500   0              780.21209      0.021514499   -0.025330627    0.37436301     0.3758353      0             -4117.8326     -4117.8326     -10898.015    
      9000   0              796.12399      0.028524175   -0.029626319    0.3595381      0.36188257     0             -4117.018      -4117.018      -10898.015    
      9500   0              806.82812      0.020527235   -0.012666721    0.35730507     0.35811831     0             -4116.8237     -4116.8237     -10898.015    
     10000   0              728.88161      0.028766105    0.00833362     0.36275311     0.36398731     0             -4118.3673     -4118.3673     -10898.015    
     10500   0              762.74929      0.0095168223  -0.020988223    0.37054892     0.37126483     0             -4117.6929     -4117.6929     -10898.015    
     11000   0              807.50691     -0.0021544884  -0.00063173106  0.37371021     0.37371696     0             -4117.3006     -4117.3006     -10898.015    
     11500   0              745.59294     -0.0084815479   0.01972032     0.38250942     0.38311132     0             -4118.7194     -4118.7194     -10898.015    
     12000   0              739.01407     -0.018250155    0.03817106     0.37911242     0.38146602     0             -4118.9169     -4118.9169     -10898.015    
     12500   0              800.98945     -0.016140839    0.024180625    0.35002556     0.35123087     0             -4117.2959     -4117.2959     -10898.015    
     13000   0              785.35634     -0.025850894    0.053827007    0.35436834     0.35936407     0             -4117.5703     -4117.5703     -10898.015    
     13500   0              789.88745     -0.026381709    0.058048426    0.34402567     0.34988466     0             -4118.0444     -4118.0444     -10898.015    
     14000   0              779.88368     -0.039756964    0.08749573     0.35518734     0.36795946     0             -4118.9841     -4118.9841     -10898.015    
     14500   0              745.16552     -0.013421017    0.092572266    0.35623973     0.36831575     0             -4118.7903     -4118.7903     -10898.015    
     15000   0              746.54009      0.0082955114   0.081548825    0.35784488     0.36711304     0             -4118.491      -4118.491      -10898.015    
     15500   0              765.21266      0.0051590194   0.091408164    0.31528714     0.3283109      0             -4117.0037     -4117.0037     -10898.015    
     16000   0              805.23364      0.01062529     0.079183293    0.28211087     0.29320544     0             -4116.1329     -4116.1329     -10898.015    
     16500   0              816.60251      0.0096794457   0.063258559    0.24668618     0.25485173     0             -4115.1598     -4115.1598     -10898.015    
     17000   0              767.89934      0.022751831    0.079282692    0.2607202      0.27345642     0             -4116.1762     -4116.1762     -10898.015    
     17500   0              788.4499       0.028016857    0.070029766    0.26579363     0.27628855     0             -4116.8044     -4116.8044     -10898.015    
     18000   0              775.82551      0.0036202926   0.061112431    0.27809125     0.28475003     0             -4116.486      -4116.486      -10898.015    
     18500   0              810.92189      0.011288498    0.042969685    0.26819011     0.2718451      0             -4116.2734     -4116.2734     -10898.015    
     19000   0              851.38808     -0.012139532    0.036334977    0.25731296     0.26014911     0             -4115.9607     -4115.9607     -10898.015    
     19500   0              803.49296     -0.010667965    0.02191998     0.27714412     0.27821423     0             -4116.879      -4116.879      -10898.015    
     20000   0              805.14539      0.011232306   -0.0070407549   0.30177677     0.3020678      0             -4117.5221     -4117.5221     -10898.015    
     20500   0              828.2055       0.027967434   -0.0092075913   0.2873607      0.28886524     0             -4116.665      -4116.665      -10898.015    
     21000   0              699.40829      0.029559888    0.0011611511   0.29861222     0.30007398     0             -4118.1394     -4118.1394     -10898.015    
     21500   0              754.12971      0.0071258386   0.023167189    0.27651601     0.2775763      0             -4116.1807     -4116.1807     -10898.015    
     22000   0              801.56246      0.018648125    0.027836906    0.28079637     0.28278835     0             -4116.2416     -4116.2416     -10898.015    
     22500   0              809.84885      0.023429441    0.039532261    0.29298657     0.29656849     0             -4117.052      -4117.052      -10898.015    
     23000   0              779.98453      0.02725728     0.04307113     0.28062011     0.28521173     0             -4117.6838     -4117.6838     -10898.015    
     23500   0              698.14516      0.029733896    0.065585099    0.32176527     0.32972474     0             -4119.5018     -4119.5018     -10898.015    
     24000   0              769.66967      0.015989335    0.063120238    0.30766098     0.31447592     0             -4118.3615     -4118.3615     -10898.015    
     24500   0              771.01451     -0.0083234164   0.060778777    0.27844792     0.28512556     0             -4117.8772     -4117.8772     -10898.015    
     25000   0              774.59343     -0.00050809877  0.051161933    0.28063853     0.28526442     0             -4116.569      -4116.569      -10898.015    
     25500   0              804.01511      0.0066600692   0.070178947    0.26067039     0.27003425     0             -4115.7106     -4115.7106     -10898.015    
     26000   0              806.25952      0.016040066    0.059475454    0.26968173     0.27662763     0             -4116.3063     -4116.3063     -10898.015    
     26500   0              823.50869      0.051657239    0.067281886    0.27235326     0.28525711     0             -4115.91       -4115.91       -10898.015    
     27000   0              728.87555      0.042727565    0.044996342    0.27946377     0.28626965     0             -4116.4407     -4116.4407     -10898.015    
     27500   0              818.42294      0.058975875    0.03519612     0.28284913     0.29106795     0             -4116.7335     -4116.7335     -10898.015    
     28000   0              795.43475      0.047031803    0.024041377    0.266717       0.27189693     0             -4116.726      -4116.726      -10898.015    
     28500   0              827.69632      0.061595579    0.02092089     0.25906332     0.26710579     0             -4115.5361     -4115.5361     -10898.015    
     29000   0              794.96321      0.068892771    0.047326318    0.25297565     0.26642574     0             -4116.7372     -4116.7372     -10898.015    
     29500   0              713.33882      0.070677005    0.062659016    0.26379458     0.28019452     0             -4117.8084     -4117.8084     -10898.015    
     30000   0              733.22843      0.067178268    0.053350464    0.2531885      0.26732678     0             -4117.5909     -4117.5909     -10898.015    
     30500   0              741.99586      0.068901192    0.074027971    0.26807116     0.28651294     0             -4117.2031     -4117.2031     -10898.015    
     31000   0              765.01597      0.077079926    0.088006895    0.26376666     0.28854701     0             -4116.4759     -4116.4759     -10898.015    
     31500   0              903.0022       0.065971096    0.094347808    0.25156531     0.27665647     0             -4115.3226     -4115.3226     -10898.015    
     32000   0              760.93635      0.061513449    0.078529086    0.2587786      0.27733929     0             -4116.3634     -4116.3634     -10898.015    
     32500   0              839.29047      0.030325563    0.08070521     0.27392549     0.28717267     0             -4115.831      -4115.831      -10898.015    
     33000   0              780.47204      0.019956722    0.073381883    0.29065259     0.30043652     0             -4116.5523     -4116.5523     -10898.015    
     33500   0              821.90359      0.023497974    0.050129321    0.29627757     0.30140587     0             -4116.275      -4116.275      -10898.015    
     34000   0              851.4441       0.051454972    0.064533006    0.31368661     0.32436308     0             -4116.3603     -4116.3603     -10898.015    
     34500   0              796.58666      0.071214325    0.050964337    0.31230599     0.32435147     0             -4116.2562     -4116.2562     -10898.015    
     35000   0              828.91809      0.042460085    0.076619927    0.31253197     0.32457619     0             -4115.4724     -4115.4724     -10898.015    
     35500   0              816.60079      0.043976053    0.075831699    0.32616575     0.33774019     0             -4115.981      -4115.981      -10898.015    
     36000   0              788.38445      0.041587815    0.067310482    0.32832358     0.3377227      0             -4115.4212     -4115.4212     -10898.015    
     36500   0              775.04971      0.059900071    0.078372722    0.34936926     0.36302779     0             -4116.5732     -4116.5732     -10898.015    
     37000   0              746.86995      0.04214931     0.05605393     0.33972441     0.34688799     0             -4117.8677     -4117.8677     -10898.015    
     37500   0              773.35498      0.070807947    0.04484691     0.3495564      0.35946445     0             -4117.5982     -4117.5982     -10898.015    
     38000   0              874.53353      0.061166352    0.054129547    0.33807831     0.34780494     0             -4116.5723     -4116.5723     -10898.015    
     38500   0              761.86379      0.068830509    0.059144014    0.32797597     0.34029971     0             -4117.8397     -4117.8397     -10898.015    
     39000   0              807.76763      0.069755259    0.052241054    0.31135693     0.32332347     0             -4116.9444     -4116.9444     -10898.015    
     39500   0              811.49857      0.070245875    0.036363103    0.30487786     0.31497185     0             -4116.5437     -4116.5437     -10898.015    
     40000   0              805.50766      0.072907166    0.046709314    0.31575258     0.32740939     0             -4117.2718     -4117.2718     -10898.015    
     40500   0              755.92267      0.068117384    0.059979345    0.32052564     0.33312788     0             -4117.3657     -4117.3657     -10898.015    
     41000   0              831.27774      0.044005073    0.075271028    0.32997976     0.34130458     0             -4116.4243     -4116.4243     -10898.015    
     41500   0              801.83123      0.034165785    0.081492609    0.33585645     0.34728648     0             -4116.6201     -4116.6201     -10898.015    
     42000   0              793.54398      0.016165133    0.086905008    0.34304491     0.35425077     0             -4117.4885     -4117.4885     -10898.015    
     42500   0              750.03388      0.01488062     0.075304147    0.352669       0.36092599     0             -4118.0652     -4118.0652     -10898.015    
     43000   0              786.66845     -0.0090304951   0.088762567    0.36133047     0.37218282     0             -4118.1161     -4118.1161     -10898.015    
     43500   0              785.95126      0.0049218956   0.089449659    0.34101547     0.35258619     0             -4117.5501     -4117.5501     -10898.015    
     44000   0              818.20839     -0.010947904    0.083482704    0.33234758     0.34284709     0             -4116.1267     -4116.1267     -10898.015    
     44500   0              862.39371     -0.011027062    0.081476159    0.32569888     0.33591625     0             -4115.8148     -4115.8148     -10898.015    
     45000   0              825.62441     -0.041570412    0.10161279     0.31636822     0.33487626     0             -4117.1021     -4117.1021     -10898.015    
     45500   0              798.62322     -0.051142553    0.061393029    0.31537114     0.32533617     0             -4117.1366     -4117.1366     -10898.015    
     46000   0              751.38974     -0.051835366    0.062636671    0.32952675     0.33940851     0             -4117.9094     -4117.9094     -10898.015    
     46500   0              835.00757     -0.069893078    0.05083592     0.28817549     0.30085619     0             -4116.6841     -4116.6841     -10898.015    
     47000   0              818.69509     -0.072359644    0.036845622    0.28572535     0.29703955     0             -4116.2292     -4116.2292     -10898.015    
     47500   0              872.81311     -0.063482177    0.036068535    0.28719028     0.29632614     0             -4116.1653     -4116.1653     -10898.015    
     48000   0              781.79985     -0.074256306    0.0018256122   0.2616411      0.27198051     0             -4116.7229     -4116.7229     -10898.015    
     48500   0              823.14028     -0.063889558    0.0064052399   0.25135977     0.25943137     0             -4116.3105     -4116.3105     -10898.015    
     49000   0              815.9448      -0.072883235    0.011505476    0.24123861     0.2522705      0             -4116.6415     -4116.6415     -10898.015    
     49500   0              765.73551     -0.067622085    0.048233503    0.2314806      0.24593187     0             -4115.6548     -4115.6548     -10898.015    
     50000   0              873.09232     -0.058966508    0.045000714    0.21292167     0.22547228     0             -4114.9532     -4114.9532     -10898.015    
     50500   0              846.48186     -0.059891199    0.040922334    0.20630159     0.21868228     0             -4115.2099     -4115.2099     -10898.015    
     51000   0              848.14508     -0.050378721    0.048137073    0.19131623     0.20361015     0             -4115.5566     -4115.5566     -10898.015    
     51500   0              847.42205     -0.033689631    0.057492178    0.1693536      0.18199171     0             -4115.1669     -4115.1669     -10898.015    
     52000   0              820.42602     -0.023035532    0.06238506     0.21001597     0.22029353     0             -4116.3248     -4116.3248     -10898.015    
     52500   0              788.33279     -0.015699922    0.054116265    0.21121022     0.21859738     0             -4116.6936     -4116.6936     -10898.015    
     53000   0              839.84014     -0.031893183    0.062065663    0.19826483     0.21018626     0             -4116.2048     -4116.2048     -10898.015    
     53500   0              835.12205     -0.028628104    0.067368896    0.17154342     0.18650813     0             -4115.9445     -4115.9445     -10898.015    
     54000   0              769.71916     -0.017982948    0.056900731    0.18835729     0.19758428     0             -4116.7805     -4116.7805     -10898.015    
     54500   0              764.74539     -0.010038144    0.061897174    0.16759688     0.17894339     0             -4116.0519     -4116.0519     -10898.015    
     55000   0              820.36523     -0.026424412    0.046259118    0.18405103     0.19160621     0             -4115.7529     -4115.7529     -10898.015    
     55500   0              747.13762     -0.020375141    0.038661011    0.18720371     0.19223696     0             -4117.3437     -4117.3437     -10898.015    
     56000   0              817.40887     -0.022308995    0.013985239    0.17987705     0.18179393     0             -4115.9011     -4115.9011     -10898.015    
     56500   0              820.13931     -0.034347662    0.011835045    0.18212237     0.18571049     0             -4116.3883     -4116.3883     -10898.015    
     57000   0              793.32397     -0.038867202    0.03120639     0.19740099     0.20359678     0             -4116.4391     -4116.4391     -10898.015    
     57500   0              808.07422     -0.047375676    0.030760125    0.21616431     0.22342258     0             -4116.1067     -4116.1067     -10898.015    
     58000   0              836.66805     -0.031114687    0.051595592    0.23532588     0.24291665     0             -4116.6234     -4116.6234     -10898.015    
     58500   0              780.61067     -0.050718714    0.078764356    0.25331836     0.27008592     0             -4117.0901     -4117.0901     -10898.015    
     59000   0              841.83946     -0.07516993     0.067193196    0.22911775     0.25032057     0             -4116.6297     -4116.6297     -10898.015    
     59500   0              760.41        -0.10197356     0.057295799    0.24510731     0.2715861      0             -4118.0659     -4118.0659     -10898.015    
     60000   0              775.22609     -0.071135317    0.042797041    0.24223666     0.25606722     0             -4117.5858     -4117.5858     -10898.015    
     60500   0              730.86376     -0.073195127    0.038090287    0.24662954     0.26006639     0             -4117.625      -4117.625      -10898.015    
     61000   0              769.70542     -0.076951559    0.052623473    0.24716285     0.26415951     0             -4117.9871     -4117.9871     -10898.015    
     61500   0              802.3743      -0.11150892     0.044494751    0.22914286     0.25868992     0             -4117.3136     -4117.3136     -10898.015    
     62000   0              769.97094     -0.10490843     0.050716308    0.2234641      0.25202009     0             -4116.8719     -4116.8719     -10898.015    
     62500   0              782.22072     -0.096897065    0.07417881     0.22741864     0.25809064     0             -4117.161      -4117.161      -10898.015    
     63000   0              751.58402     -0.093956679    0.094865636    0.25691748     0.28954091     0             -4118.2023     -4118.2023     -10898.015    
     63500   0              744.21354     -0.11115473     0.088301732    0.26647176     0.30192676     0             -4117.566      -4117.566      -10898.015    
     64000   0              725.44104     -0.097628001    0.11356544     0.28107248     0.31848088     0             -4118.1609     -4118.1609     -10898.015    
     64500   0              715.62711     -0.083615114    0.094343656    0.27992363     0.30700073     0             -4118.2477     -4118.2477     -10898.015    
     65000   0              738.55662     -0.087773343    0.093855222    0.29751556     0.32408097     0             -4118.5597     -4118.5597     -10898.015    
     65500   0              798.55836     -0.096968643    0.12198527     0.28094414     0.3212677      0             -4117.4824     -4117.4824     -10898.015    
     66000   0              803.55972     -0.10475958     0.12934267     0.2605184      0.30915034     0             -4116.7862     -4116.7862     -10898.015    
     66500   0              803.56265     -0.070691204    0.14302173     0.265398       0.30965878     0             -4116.625      -4116.625      -10898.015    
     67000   0              786.56033     -0.096608435    0.18080093     0.25752356     0.32915126     0             -4116.4392     -4116.4392     -10898.015    
     67500   0              798.57925     -0.078182102    0.16391359     0.2697557      0.32518955     0             -4116.8141     -4116.8141     -10898.015    
     68000   0              729.74919     -0.085255443    0.12312074     0.26355559     0.30313158     0             -4117.5711     -4117.5711     -10898.015    
     68500   0              819.37872     -0.10573075     0.1057113      0.26588478     0.30503867     0             -4116.9662     -4116.9662     -10898.015    
     69000   0              792.91282     -0.10944895     0.1267831      0.28075021     0.32691544     0             -4117.5763     -4117.5763     -10898.015    
     69500   0              750.3358      -0.11891279     0.10727098     0.27695726     0.31992599     0             -4117.2433     -4117.2433     -10898.015    
     70000   0              727.78736     -0.15197775     0.074260634    0.27547318     0.3232605      0             -4118.0892     -4118.0892     -10898.015    
     70500   0              750.45159     -0.16004896     0.067848275    0.27073778     0.32174214     0             -4117.2741     -4117.2741     -10898.015    
     71000   0              754.76848     -0.16594505     0.088146501    0.29702493     0.3514703      0             -4118.3824     -4118.3824     -10898.015    
     71500   0              841.98455     -0.17358654     0.071867896    0.28602373     0.34220879     0             -4116.0588     -4116.0588     -10898.015    
     72000   0              850.60579     -0.16778024     0.061602468    0.30511899     0.35361373     0             -4116.788      -4116.788      -10898.015    
     72500   0              768.65882     -0.18343176     0.034912184    0.2775168      0.33448714     0             -4117.4882     -4117.4882     -10898.015    
     73000   0              798.37897     -0.18782367     0.034692421    0.27764648     0.33699979     0             -4117.7383     -4117.7383     -10898.015    
     73500   0              720.86619     -0.2017654      0.014352641    0.28291136     0.34778458     0             -4118.7665     -4118.7665     -10898.015    
     74000   0              744.99038     -0.1800933      0.003604285    0.27699237     0.33041089     0             -4118.6164     -4118.6164     -10898.015    
     74500   0              749.1744      -0.19366597     0.028561698    0.28032928     0.34191634     0             -4118.3846     -4118.3846     -10898.015    
     75000   0              840.16414     -0.19473868     0.054604834    0.2459108      0.3183975      0             -4117.4951     -4117.4951     -10898.015    
     75500   0              826.6951      -0.16774508     0.045333151    0.26526577     0.31711107     0             -4116.4532     -4116.4532     -10898.015    
     76000   0              761.16904     -0.17592316     0.050310858    0.26065148     0.31846403     0             -4117.8416     -4117.8416     -10898.015    
     76500   0              854.11002     -0.17431712     0.063158954    0.24399964     0.30644957     0             -4116.1672     -4116.1672     -10898.015    
     77000   0              775.10013     -0.17911731     0.065000691    0.24036529     0.30673045     0             -4116.5722     -4116.5722     -10898.015    
     77500   0              825.58811     -0.15113512     0.059400652    0.23717411     0.28744012     0             -4116.9848     -4116.9848     -10898.015    
     78000   0              797.90202     -0.14320682     0.059908092    0.2644409      0.30663686     0             -4116.6457     -4116.6457     -10898.015    
     78500   0              779.18915     -0.16680969     0.061803979    0.28597911     0.3367926      0             -4116.8748     -4116.8748     -10898.015    
     79000   0              750.59715     -0.188678       0.078077942    0.26936243     0.33801135     0             -4117.129      -4117.129      -10898.015    
     79500   0              829.31576     -0.17535839     0.098588868    0.2480524      0.31937489     0             -4116.9334     -4116.9334     -10898.015    
     80000   0              737.47096     -0.15613755     0.11665384     0.24308139     0.3115696      0             -4117.2808     -4117.2808     -10898.015    
     80500   0              784.4926      -0.14798626     0.13392106     0.26010311     0.32785425     0             -4117.0898     -4117.0898     -10898.015    
     81000   0              841.06217     -0.12734487     0.11025805     0.2472034      0.29913722     0             -4115.6372     -4115.6372     -10898.015    
     81500   0              880.25707     -0.11676369     0.10714858     0.23822366     0.28612076     0             -4115.2485     -4115.2485     -10898.015    
     82000   0              859.85595     -0.16164728     0.088320557    0.24801698     0.30893816     0             -4115.3125     -4115.3125     -10898.015    
     82500   0              853.39743     -0.16302944     0.093147496    0.2304725      0.29727534     0             -4115.8414     -4115.8414     -10898.015    
     83000   0              829.09932     -0.15779109     0.10851954     0.2407113      0.30759787     0             -4116.9076     -4116.9076     -10898.015    
     83500   0              736.69593     -0.15602714     0.11226312     0.23918989     0.30685385     0             -4117.4395     -4117.4395     -10898.015    
     84000   0              761.83883     -0.17024558     0.077806022    0.24128167     0.30537547     0             -4117.0142     -4117.0142     -10898.015    
     84500   0              776.37001     -0.18782047     0.068021662    0.25349051     0.3227397      0             -4117.8001     -4117.8001     -10898.015    
     85000   0              801.25606     -0.19920334     0.048360082    0.22630909     0.30534648     0             -4117.023      -4117.023      -10898.015    
     85500   0              827.11107     -0.18688864     0.0671181      0.20583175     0.28600509     0             -4116.0542     -4116.0542     -10898.015    
     86000   0              872.61016     -0.17707528     0.044154263    0.20710343     0.27603819     0             -4116.156      -4116.156      -10898.015    
     86500   0              813.56321     -0.1779604      0.028126975    0.20363556     0.27189791     0             -4116.4176     -4116.4176     -10898.015    
     87000   0              785.15492     -0.18195051     0.03380016     0.22818977     0.29380098     0             -4117.8635     -4117.8635     -10898.015    
     87500   0              815.96863     -0.20001454     0.025333769    0.2220259      0.29990518     0             -4116.8763     -4116.8763     -10898.015    
     88000   0              727.53454     -0.19611083     0.021777136    0.22318971     0.29790493     0             -4118.6362     -4118.6362     -10898.015    
     88500   0              790.36784     -0.19133512     0.026801193    0.20666169     0.28290721     0             -4117.2562     -4117.2562     -10898.015    
     89000   0              811.29859     -0.19168284     0.02955547     0.206059       0.2829773      0             -4117.6151     -4117.6151     -10898.015    
     89500   0              801.57462     -0.20793911     0.055035194    0.19140108     0.28792694     0             -4117.7639     -4117.7639     -10898.015    
     90000   0              802.52226     -0.20001846     0.046073202    0.20709151     0.29157678     0             -4117.6145     -4117.6145     -10898.015    
     90500   0              805.20472     -0.18793673     0.036098991    0.18780116     0.26812801     0             -4116.8689     -4116.8689     -10898.015    
     91000   0              813.02485     -0.190671       0.020817967    0.18849502     0.26892228     0             -4117.2621     -4117.2621     -10898.015    
     91500   0              725.14362     -0.20003915     0.018678163    0.18854133     0.27552199     0             -4117.7728     -4117.7728     -10898.015    
     92000   0              806.65486     -0.18772755     0.012612245    0.19585266     0.27158602     0             -4117.1811     -4117.1811     -10898.015    
     92500   0              770.32771     -0.16655281     0.0095738844   0.2237026      0.27905976     0             -4116.8028     -4116.8028     -10898.015    
     93000   0              779.82085     -0.18503267    -0.0020415772   0.25701513     0.31669865     0             -4117.853      -4117.853      -10898.015    
     93500   0              795.09771     -0.1990575      0.0088940098   0.24871941     0.31869161     0             -4116.985      -4116.985      -10898.015    
     94000   0              809.60798     -0.18446966     0.0029066708   0.28125789     0.33636811     0             -4117.5393     -4117.5393     -10898.015    
     94500   0              833.07888     -0.2000363     -0.0072280262   0.27535193     0.34041952     0             -4117.7027     -4117.7027     -10898.015    
     95000   0              788.48015     -0.17192265    -0.016246531    0.28627573     0.3343279      0             -4117.9948     -4117.9948     -10898.015    
     95500   0              741.41173     -0.17263337    -0.007307505    0.26420623     0.31569069     0             -4117.6487     -4117.6487     -10898.015    
     96000   0              746.92433     -0.15215944    -0.00018815627  0.24180173     0.28569321     0             -4117.6072     -4117.6072     -10898.015    
     96500   0              725.807       -0.1656253      0.0077628661   0.25083921     0.3006864      0             -4117.5112     -4117.5112     -10898.015    
     97000   0              842.58602     -0.14134319    -0.014966424    0.22694104     0.26777626     0             -4116.3755     -4116.3755     -10898.015    
     97500   0              837.65305     -0.1235348     -0.007224145    0.19021166     0.22692182     0             -4115.7546     -4115.7546     -10898.015    
     98000   0              767.93658     -0.12606795    -0.035488203    0.19183703     0.23227998     0             -4116.3241     -4116.3241     -10898.015    
     98500   0              813.0096      -0.1234253     -0.061412347    0.22478051     0.26368837     0             -4116.2581     -4116.2581     -10898.015    
     99000   0              739.50898     -0.13482851    -0.062098783    0.24435251     0.28590756     0             -4117.3419     -4117.3419     -10898.015    
     99500   0              800.92866     -0.13066658    -0.038317046    0.22830155     0.26582617     0             -4116.4103     -4116.4103     -10898.015    
    100000   0              853.06067     -0.0876591     -0.039893064    0.22497203     0.24472023     0             -4115.1573     -4115.1573     -10898.015    
    100500   0              822.27197     -0.085482909   -0.039293209    0.20986457     0.22998787     0             -4115.3186     -4115.3186     -10898.015    
    101000   0              817.0721      -0.10464983    -0.024910893    0.21096599     0.23680961     0             -4115.3426     -4115.3426     -10898.015    
    101500   0              810.62015     -0.12739841    -0.036664015    0.22458515     0.2607932      0             -4115.4894     -4115.4894     -10898.015    
    102000   0              816.10069     -0.13242425    -0.035084105    0.22638169     0.26460489     0             -4115.9851     -4115.9851     -10898.015    
    102500   0              844.87295     -0.13094017    -0.068260755    0.21960895     0.26463739     0             -4115.6673     -4115.6673     -10898.015    
    103000   0              790.19245     -0.15382002    -0.042467327    0.22040663     0.27210872     0             -4117.4451     -4117.4451     -10898.015    
    103500   0              717.00031     -0.12902626    -0.040103369    0.2140127      0.25309581     0             -4118.4501     -4118.4501     -10898.015    
    104000   0              768.24042     -0.13027195    -0.035313548    0.2158007      0.25453442     0             -4117.4856     -4117.4856     -10898.015    
    104500   0              827.14229     -0.12332024    -0.02795374     0.19749857     0.23451009     0             -4115.8089     -4115.8089     -10898.015    
    105000   0              783.36418     -0.13396335    -0.040304949    0.19874062     0.24304012     0             -4116.749      -4116.749      -10898.015    
    105500   0              783.03704     -0.11711801    -0.050895981    0.18707714     0.22650582     0             -4117.6589     -4117.6589     -10898.015    
    106000   0              808.05914     -0.10799716    -0.02431043     0.18956289     0.21951873     0             -4116.9102     -4116.9102     -10898.015    
    106500   0              745.23106     -0.11736782    -0.01059746     0.15300894     0.19313013     0             -4117.9558     -4117.9558     -10898.015    
    107000   0              734.98096     -0.10438677    -0.021663639    0.16967603     0.20038928     0             -4117.9697     -4117.9697     -10898.015    
    107500   0              755.17908     -0.084028784   -0.04634459     0.17419436     0.19887768     0             -4117.507      -4117.507      -10898.015    
    108000   0              736.80049     -0.088718889   -0.036488586    0.16228921     0.18852121     0             -4118.0618     -4118.0618     -10898.015    
    108500   0              782.86419     -0.095429839   -0.020238697    0.1596585      0.18710237     0             -4117.6296     -4117.6296     -10898.015    
    109000   0              772.07721     -0.10722708    -0.011421417    0.14988714     0.18464628     0             -4116.9971     -4116.9971     -10898.015    
    109500   0              770.3332      -0.11193993    -0.0038602056   0.15376793     0.19023676     0             -4117.4202     -4117.4202     -10898.015    
    110000   0              733.4826      -0.10381132     0.01041387     0.18339643     0.21099643     0             -4117.7482     -4117.7482     -10898.015    
    110500   0              831.1725      -0.086554817    0.0034886105   0.17785948     0.19783301     0             -4116.7945     -4116.7945     -10898.015    
    111000   0              771.41364     -0.12497592    -0.0066738604   0.21055116     0.2449394      0             -4117.33       -4117.33       -10898.015    
    111500   0              857.10212     -0.09121668    -0.019117759    0.17440969     0.19774911     0             -4116.003      -4116.003      -10898.015    
    112000   0              842.14399     -0.11819129    -0.0099626932   0.18077549     0.21621335     0             -4116.3833     -4116.3833     -10898.015    
    112500   0              792.56293     -0.090756541   -0.019828221    0.17570268     0.19874944     0             -4116.1537     -4116.1537     -10898.015    
    113000   0              786.7071      -0.077886703   -0.0061494491   0.1751891      0.1918212      0             -4116.4678     -4116.4678     -10898.015    
    113500   0              818.46308     -0.086127382    0.012610855    0.17746305     0.19766157     0             -4115.7728     -4115.7728     -10898.015    
    114000   0              789.77084     -0.096826325    0.00073826238  0.20521136     0.22690876     0             -4116.6084     -4116.6084     -10898.015    
    114500   0              756.82864     -0.08751637     0.0011109434   0.2073322      0.22504886     0             -4117.261      -4117.261      -10898.015    
    115000   0              751.73079     -0.059984175    0.01685944     0.20994407     0.2189951      0             -4117.6052     -4117.6052     -10898.015    
    115500   0              761.99293     -0.039143977    0.016860269    0.19872552     0.20324456     0             -4116.6563     -4116.6563     -10898.015    
    116000   0              754.39892     -0.054744457    0.011187027    0.19429117     0.20216618     0             -4116.9984     -4116.9984     -10898.015    
    116500   0              816.62158     -0.057350013    0.02439372     0.19236124     0.20220516     0             -4116.2638     -4116.2638     -10898.015    
    117000   0              747.05946     -0.056890058    0.039280516    0.22308548     0.23355207     0             -4118.0809     -4118.0809     -10898.015    
    117500   0              764.09387     -0.049693262    0.03822551     0.21056364     0.21969901     0             -4117.8357     -4117.8357     -10898.015    
    118000   0              762.04363     -0.059721438    0.027651235    0.22304585     0.23255256     0             -4117.8975     -4117.8975     -10898.015    
    118500   0              732.98944     -0.057278346    0.02880122     0.23989752     0.24831661     0             -4118.8667     -4118.8667     -10898.015    
    119000   0              728.0744      -0.055932117   -0.01115084     0.23301234     0.23989059     0             -4118.2034     -4118.2034     -10898.015    
    119500   0              758.16168     -0.03794995    -0.00040410763  0.21469089     0.21801958     0             -4117.8809     -4117.8809     -10898.015    
    120000   0              741.63481     -0.036416845    0.013539554    0.21001139     0.21357502     0             -4117.8712     -4117.8712     -10898.015    
    120500   0              739.63075     -0.037892023    0.025523933    0.18838069     0.19384158     0             -4118.0748     -4118.0748     -10898.015    
    121000   0              776.70162     -0.028335479    0.014151844    0.20345046     0.2059011      0             -4117.7581     -4117.7581     -10898.015    
    121500   0              813.56823     -0.025117202    0.022592068    0.18614333     0.18918407     0             -4117.2783     -4117.2783     -10898.015    
    122000   0              764.58428     -0.0077492296   0.020316684    0.20107242     0.20224474     0             -4117.4515     -4117.4515     -10898.015    
    122500   0              761.92704     -0.031260546    0.029556687    0.20962212     0.21399125     0             -4117.6677     -4117.6677     -10898.015    
    123000   0              763.60512     -0.051959961    0.038837274    0.23605376     0.24480512     0             -4118.6217     -4118.6217     -10898.015    
    123500   0              760.94245     -0.04537823     0.059051339    0.25552323     0.26615478     0             -4118.5718     -4118.5718     -10898.015    
    124000   0              757.9153      -0.057299858    0.056667001    0.24355934     0.25654546     0             -4117.8559     -4117.8559     -10898.015    
    124500   0              765.74173     -0.055078028    0.055975894    0.25640492     0.2681611      0             -4118.1596     -4118.1596     -10898.015    
    125000   0              786.66723     -0.05887097     0.023001394    0.24162234     0.2497523      0             -4117.3961     -4117.3961     -10898.015    
    125500   0              801.66888     -0.043153078    0.0076418065   0.24426212     0.24816238     0             -4116.7337     -4116.7337     -10898.015    
    126000   0              742.53877     -0.058221152    0.024117215    0.25185013     0.25961477     0             -4117.2419     -4117.2419     -10898.015    
    126500   0              808.08105     -0.08374504     0.015173425    0.26679453     0.28004069     0             -4117.0132     -4117.0132     -10898.015    
    127000   0              806.66691     -0.09460045    -0.011025608    0.24549968     0.26332661     0             -4116.1973     -4116.1973     -10898.015    
    127500   0              779.86661     -0.099365468    0.0045763027   0.24061216     0.26036253     0             -4116.6028     -4116.6028     -10898.015    
    128000   0              807.80694     -0.077906638    0.0067691339   0.21477034     0.22856413     0             -4116.7785     -4116.7785     -10898.015    
    128500   0              764.81356     -0.1059718      0.020294342    0.20196526     0.22898002     0             -4116.8425     -4116.8425     -10898.015    
    129000   0              780.33552     -0.098434417    0.035278782    0.20843168     0.23319025     0             -4117.1017     -4117.1017     -10898.015    
    129500   0              775.89943     -0.061680429    0.028446716    0.2430309      0.25234443     0             -4117.4502     -4117.4502     -10898.015    
    130000   0              811.02058     -0.09911839     0.044499331    0.23906904     0.26259979     0             -4116.6042     -4116.6042     -10898.015    
    130500   0              790.02471     -0.098610528    0.037244641    0.24554342     0.26721297     0             -4116.3862     -4116.3862     -10898.015    
    131000   0              851.98614     -0.111924       0.05312192     0.21792285     0.25067766     0             -4115.6537     -4115.6537     -10898.015    
    131500   0              857.93825     -0.11132148     0.022169008    0.24039214     0.26584266     0             -4116.5127     -4116.5127     -10898.015    
    132000   0              812.83739     -0.12565708     0.042018804    0.24724562     0.28050968     0             -4117.1185     -4117.1185     -10898.015    
    132500   0              844.22842     -0.13387923     0.045761388    0.24198329     0.28030995     0             -4116.7398     -4116.7398     -10898.015    
    133000   0              837.28576     -0.13432901     0.043471343    0.24165212     0.27987459     0             -4116.2959     -4116.2959     -10898.015    
    133500   0              767.59989     -0.13707604     0.028797062    0.25447958     0.29048058     0             -4116.7517     -4116.7517     -10898.015    
    134000   0              797.23358     -0.16722957     0.037617253    0.25960204     0.3110852      0             -4117.3149     -4117.3149     -10898.015    
    134500   0              775.3489      -0.17728781     0.05519366     0.2543731      0.31493329     0             -4117.467      -4117.467      -10898.015    
    135000   0              755.88932     -0.18543115     0.073696537    0.26526445     0.33193542     0             -4117.632      -4117.632      -10898.015    
    135500   0              774.95299     -0.1710929      0.065878931    0.23577841     0.29867084     0             -4117.4803     -4117.4803     -10898.015    
    136000   0              808.3445      -0.17069362     0.074152713    0.21964184     0.28788448     0             -4116.1299     -4116.1299     -10898.015    
    136500   0              839.23582     -0.18700795     0.071244984    0.22508701     0.3011843      0             -4116.6197     -4116.6197     -10898.015    
    137000   0              773.98579     -0.19724846     0.080484424    0.24573473     0.32522339     0             -4117.3243     -4117.3243     -10898.015    
    137500   0              803.63134     -0.17654863     0.073573434    0.2388121      0.30596354     0             -4117.2225     -4117.2225     -10898.015    
    138000   0              762.90735     -0.1803143      0.089876092    0.24315957     0.31578084     0             -4117.9354     -4117.9354     -10898.015    
    138500   0              799.87546     -0.17327852     0.073910106    0.24565595     0.30957228     0             -4116.9695     -4116.9695     -10898.015    
    139000   0              820.35478     -0.17708039     0.065782704    0.24870098     0.31230915     0             -4116.4695     -4116.4695     -10898.015    
    139500   0              803.06471     -0.18167668     0.030200483    0.25443597     0.31409577     0             -4116.7094     -4116.7094     -10898.015    
    140000   0              774.08278     -0.16746442     0.02083254     0.24745591     0.29952087     0             -4117.6319     -4117.6319     -10898.015    
    140500   0              734.26914     -0.16299359     0.036158676    0.25698174     0.30645387     0             -4118.0312     -4118.0312     -10898.015    
    141000   0              725.89769     -0.16291406     0.023551222    0.2540811      0.30274223     0             -4118.2396     -4118.2396     -10898.015    
    141500   0              795.54493     -0.14957049     0.037627337    0.25266843     0.29602109     0             -4117.3333     -4117.3333     -10898.015    
    142000   0              795.59768     -0.14627843     0.057903293    0.25538351     0.29995151     0             -4117.4961     -4117.4961     -10898.015    
    142500   0              783.794       -0.13306703     0.028844135    0.25220467     0.28661126     0             -4117.2256     -4117.2256     -10898.015    
    143000   0              774.1953      -0.14699088     0.045140719    0.25885714     0.30108309     0             -4116.982      -4116.982      -10898.015    
    143500   0              828.48391     -0.14161871     0.037089008    0.26321196     0.30118431     0             -4116.2503     -4116.2503     -10898.015    
    144000   0              827.44941     -0.13704395     0.03529105     0.24034245     0.27891037     0             -4116.428      -4116.428      -10898.015    
    144500   0              810.58155     -0.11245406     0.039326366    0.25334732     0.27995954     0             -4116.6468     -4116.6468     -10898.015    
    145000   0              755.30382     -0.12826681     0.074111648    0.23531145     0.27805825     0             -4118.1564     -4118.1564     -10898.015    
    145500   0              750.32451     -0.1156271      0.085311472    0.24581519     0.28473283     0             -4117.0774     -4117.0774     -10898.015    
    146000   0              781.91935     -0.11154497     0.085795058    0.23963943     0.27790309     0             -4116.4861     -4116.4861     -10898.015    
    146500   0              775.82237     -0.11204413     0.083610645    0.25284038     0.28891674     0             -4116.8895     -4116.8895     -10898.015    
    147000   0              798.78056     -0.12263758     0.085146591    0.23606885     0.27931778     0             -4116.1421     -4116.1421     -10898.015    
    147500   0              757.29213     -0.10461584     0.12013551     0.2468281      0.29377053     0             -4117.2141     -4117.2141     -10898.015    
    148000   0              751.62999     -0.14078509     0.12310166     0.2519799      0.31379664     0             -4117.0691     -4117.0691     -10898.015    
    148500   0              712.84704     -0.1292352      0.11160292     0.25369195     0.30580476     0             -4117.3625     -4117.3625     -10898.015    
    149000   0              734.49722     -0.13488876     0.11254811     0.26321246     0.31645356     0             -4117.3168     -4117.3168     -10898.015    
    149500   0              788.01847     -0.14075035     0.11811219     0.25631761     0.31537259     0             -4116.659      -4116.659      -10898.015    
    150000   0              795.54804     -0.16275061     0.092284373    0.26593969     0.32515855     0             -4116.3481     -4116.3481     -10898.015    
    150500   0              793.96574     -0.15357705     0.10464675     0.25756325     0.31760932     0             -4117.2696     -4117.2696     -10898.015    
    151000   0              842.93819     -0.17282913     0.11696696     0.27857247     0.34807154     0             -4117.0309     -4117.0309     -10898.015    
    151500   0              819.71408     -0.181243       0.096112807    0.25400407     0.32650385     0             -4116.8384     -4116.8384     -10898.015    
    152000   0              724.42695     -0.16452483     0.066574808    0.26347125     0.3176755      0             -4117.9714     -4117.9714     -10898.015    
    152500   0              725.35218     -0.19097011     0.071016245    0.23589778     0.31170604     0             -4118.7004     -4118.7004     -10898.015    
    153000   0              789.45169     -0.18909301     0.046157013    0.21630191     0.29098651     0             -4117.3458     -4117.3458     -10898.015    
    153500   0              774.43394     -0.20595708     0.050109099    0.22112066     0.30630636     0             -4117.8214     -4117.8214     -10898.015    
    154000   0              809.31153     -0.19886732     0.041660748    0.20802163     0.29078656     0             -4118.0728     -4118.0728     -10898.015    
    154500   0              811.67985     -0.19488816     0.021568216    0.20685805     0.28502076     0             -4117.6069     -4117.6069     -10898.015    
    155000   0              769.69882     -0.19302089     0.028778048    0.20278861     0.28143997     0             -4118.3444     -4118.3444     -10898.015    
    155500   0              735.49106     -0.19128712     0.0088306091   0.19674837     0.27455175     0             -4117.799      -4117.799      -10898.015    
    156000   0              775.7099      -0.22142883    -0.012517499    0.19462781     0.29507185     0             -4117.1524     -4117.1524     -10898.015    
    156500   0              819.6382      -0.23895319    -0.0062094919   0.1927079      0.30703993     0             -4116.4053     -4116.4053     -10898.015    
    157000   0              761.29258     -0.24137965     0.0061979281   0.19081584     0.30775516     0             -4117.3677     -4117.3677     -10898.015    
    157500   0              770.26852     -0.22502586    -0.025308565    0.19402351     0.2981984      0             -4117.692      -4117.692      -10898.015    
    158000   0              796.07697     -0.22315111    -0.023004706    0.19504771     0.29726965     0             -4116.7732     -4116.7732     -10898.015    
    158500   0              926.14541     -0.22181442    -0.025960743    0.23189073     0.3219455      0             -4115.1963     -4115.1963     -10898.015    
    159000   0              765.72269     -0.20926493    -0.019020598    0.22665129     0.30907022     0             -4116.5021     -4116.5021     -10898.015    
    159500   0              821.9943      -0.20928121    -0.029260006    0.2158523      0.30207116     0             -4115.2148     -4115.2148     -10898.015    
    160000   0              886.65478     -0.22238913    -0.018121319    0.23178919     0.32173209     0             -4115.727      -4115.727      -10898.015    
    160500   0              787.57962     -0.21392313    -0.028253323    0.22750277     0.3135584      0             -4117.1009     -4117.1009     -10898.015    
    161000   0              756.34397     -0.20084652    -0.015463149    0.22531        0.30223009     0             -4116.7555     -4116.7555     -10898.015    
    161500   0              763.73625     -0.18595525    -0.012064034    0.19383944     0.26888404     0             -4117.091      -4117.091      -10898.015    
    162000   0              782.67917     -0.18384088    -0.012681328    0.19163036     0.26585801     0             -4116.5013     -4116.5013     -10898.015    
    162500   0              773.67227     -0.19796562     0.016845232    0.19927558     0.28139812     0             -4116.6864     -4116.6864     -10898.015    
    163000   0              805.9894      -0.20192397     0.039062471    0.20043572     0.28718225     0             -4115.9897     -4115.9897     -10898.015    
    163500   0              776.09999     -0.21540008     0.048838609    0.21049565     0.30510789     0             -4116.8131     -4116.8131     -10898.015    
    164000   0              772.70954     -0.21094695     0.042146595    0.21298155     0.30271454     0             -4116.8426     -4116.8426     -10898.015    
    164500   0              800.50879     -0.23583349     0.038190073    0.2137763      0.32058731     0             -4116.8352     -4116.8352     -10898.015    
    165000   0              845.84706     -0.22166816     0.021527544    0.19169058     0.29384602     0             -4116.3645     -4116.3645     -10898.015    
    165500   0              785.34326     -0.23234416     0.025250735    0.18922808     0.30071361     0             -4116.4513     -4116.4513     -10898.015    
    166000   0              801.51447     -0.23759793     0.038560413    0.17106351     0.29530054     0             -4117.2012     -4117.2012     -10898.015    
    166500   0              770.77676     -0.25942374     0.072785796    0.19272657     0.33127327     0             -4117.6968     -4117.6968     -10898.015    
    167000   0              712.91983     -0.2642426      0.064123916    0.20312738     0.33940648     0             -4118.1106     -4118.1106     -10898.015    
    167500   0              809.32718     -0.25205625     0.065074524    0.20188109     0.32942833     0             -4116.9463     -4116.9463     -10898.015    
    168000   0              819.16025     -0.23758397     0.056272157    0.21557737     0.32570892     0             -4116.761      -4116.761      -10898.015    
    168500   0              790.46648     -0.25540991     0.046965297    0.21491403     0.33708753     0             -4116.9396     -4116.9396     -10898.015    
    169000   0              802.40647     -0.25906745     0.062395172    0.22545617     0.34905528     0             -4117.738      -4117.738      -10898.015    
    169500   0              755.56901     -0.2801042      0.074416976    0.22487852     0.3668332      0             -4118.0604     -4118.0604     -10898.015    
    170000   0              786.67746     -0.2743343      0.057375091    0.2234288      0.3584294      0             -4116.9884     -4116.9884     -10898.015    
    170500   0              770.15417     -0.27773176     0.085800225    0.23718218     0.37516929     0             -4117.8013     -4117.8013     -10898.015    
    171000   0              711.47001     -0.26467018     0.074366325    0.26171188     0.3795705      0             -4118.4856     -4118.4856     -10898.015    
    171500   0              750.59912     -0.2723486      0.072446461    0.26382715     0.38604017     0             -4119.1096     -4119.1096     -10898.015    
    172000   0              746.28262     -0.25649619     0.058386385    0.27013872     0.37705993     0             -4118.1633     -4118.1633     -10898.015    
    172500   0              758.63331     -0.24907742     0.060373948    0.27074529     0.37281039     0             -4118.1296     -4118.1296     -10898.015    
    173000   0              688.20011     -0.25820806     0.060443601    0.26394009     0.37415131     0             -4119.9844     -4119.9844     -10898.015    
    173500   0              768.87867     -0.24342779     0.02383746     0.23677601     0.34042355     0             -4118.2688     -4118.2688     -10898.015    
    174000   0              777.76049     -0.2543409      0.042444655    0.23644716     0.3498544      0             -4118.0099     -4118.0099     -10898.015    
    174500   0              728.38697     -0.24360251     0.025560051    0.23688137     0.34074665     0             -4118.4912     -4118.4912     -10898.015    
    175000   0              751.21592     -0.2367974      0.019815099    0.2547155      0.348347       0             -4117.8036     -4117.8036     -10898.015    
    175500   0              782.48695     -0.21756169     0.02901936     0.234554       0.32123323     0             -4116.3704     -4116.3704     -10898.015    
    176000   0              830.48339     -0.24985636     0.053426459    0.22759428     0.3421721      0             -4116.3429     -4116.3429     -10898.015    
    176500   0              769.04143     -0.26752692     0.046161708    0.25963186     0.37564645     0             -4118.3894     -4118.3894     -10898.015    
    177000   0              780.15862     -0.2624208      0.04868169     0.23852562     0.35795119     0             -4117.4324     -4117.4324     -10898.015    
    177500   0              824.30939     -0.25852046     0.020406275    0.22819643     0.3454314      0             -4116.9131     -4116.9131     -10898.015    
    178000   0              715.67897     -0.28011532     0.023763192    0.21689403     0.35506662     0             -4118.3812     -4118.3812     -10898.015    
    178500   0              800.91958     -0.24568981     0.034273636    0.22911513     0.33768611     0             -4117.1775     -4117.1775     -10898.015    
    179000   0              772.90925     -0.2661649      0.040125141    0.21626572     0.34528922     0             -4116.3984     -4116.3984     -10898.015    
    179500   0              815.82297     -0.24642042     0.064287518    0.20492541     0.32687969     0             -4116.4561     -4116.4561     -10898.015    
    180000   0              757.01516     -0.25060006     0.071775281    0.23694419     0.35227068     0             -4118.4802     -4118.4802     -10898.015    
    180500   0              804.67144     -0.23807391     0.074870082    0.21081087     0.32668937     0             -4116.9056     -4116.9056     -10898.015    
    181000   0              775.24892     -0.2330343      0.082192816    0.22041692     0.33112575     0             -4117.5957     -4117.5957     -10898.015    
    181500   0              753.10324     -0.22665486     0.083990626    0.24341337     0.34304069     0             -4118.1176     -4118.1176     -10898.015    
    182000   0              751.3127      -0.22726461     0.096369732    0.22577233     0.33452873     0             -4117.7061     -4117.7061     -10898.015    
    182500   0              758.33659     -0.24149315     0.10918964     0.22884443     0.35015867     0             -4117.5143     -4117.5143     -10898.015    
    183000   0              740.82282     -0.24079392     0.10341625     0.21536546     0.33920335     0             -4117.21       -4117.21       -10898.015    
    183500   0              773.22101     -0.21210714     0.096507555    0.21505853     0.31710143     0             -4116.0826     -4116.0826     -10898.015    
    184000   0              788.56718     -0.22409183     0.082007937    0.2232152      0.32675293     0             -4115.6749     -4115.6749     -10898.015    
    184500   0              795.58108     -0.21763467     0.068544897    0.23283331     0.32599786     0             -4116.4238     -4116.4238     -10898.015    
    185000   0              755.93281     -0.2230472      0.064325703    0.22512647     0.32337251     0             -4116.124      -4116.124      -10898.015    
    185500   0              764.96126     -0.22568005     0.076553016    0.22590764     0.32836887     0             -4116.4738     -4116.4738     -10898.015    
    186000   0              748.26186     -0.21957163     0.094089074    0.22469284     0.32795019     0             -4116.6241     -4116.6241     -10898.015    
    186500   0              792.1089      -0.23183435     0.12625919     0.24058024     0.35716579     0             -4116.7436     -4116.7436     -10898.015    
    187000   0              789.6116      -0.2705684      0.11616545     0.25108063     0.3869666      0             -4117.2817     -4117.2817     -10898.015    
    187500   0              772.6947      -0.28240821     0.1010203      0.23694431     0.38223305     0             -4117.6183     -4117.6183     -10898.015    
    188000   0              842.19258     -0.26719509     0.12407314     0.21943309     0.36733941     0             -4116.5265     -4116.5265     -10898.015    
    188500   0              793.03964     -0.26613652     0.12193211     0.23207895     0.37357292     0             -4117.4238     -4117.4238     -10898.015    
    189000   0              856.28152     -0.25999813     0.11709778     0.21866529     0.35934026     0             -4116.095      -4116.095      -10898.015    
    189500   0              780.34808     -0.27800683     0.13369432     0.21866346     0.37812125     0             -4117.0506     -4117.0506     -10898.015    
    190000   0              745.04505     -0.31046347     0.10696349     0.22595464     0.39860287     0             -4118.3141     -4118.3141     -10898.015    
    190500   0              755.00365     -0.29635387     0.11661724     0.23386347     0.39511684     0             -4117.2898     -4117.2898     -10898.015    
    191000   0              742.54315     -0.29888992     0.12982526     0.22752857     0.39744061     0             -4117.8619     -4117.8619     -10898.015    
    191500   0              763.93428     -0.28550281     0.14819072     0.22244182     0.39109168     0             -4116.9439     -4116.9439     -10898.015    
    192000   0              798.40584     -0.30260031     0.1468216      0.20079344     0.39171614     0             -4117.3298     -4117.3298     -10898.015    
    192500   0              724.73714     -0.30307235     0.11247823     0.20678567     0.38375059     0             -4118.2418     -4118.2418     -10898.015    
    193000   0              761.79776     -0.32047268     0.12376454     0.22188233     0.40896475     0             -4118.1463     -4118.1463     -10898.015    
    193500   0              748.19382     -0.30774358     0.13055211     0.21433878     0.39710336     0             -4117.8403     -4117.8403     -10898.015    
    194000   0              713.85051     -0.30075162     0.12743957     0.20271348     0.38442833     0             -4118.2593     -4118.2593     -10898.015    
    194500   0              802.66074     -0.28338872     0.12169002     0.20577183     0.37075554     0             -4117.1324     -4117.1324     -10898.015    
    195000   0              799.75421     -0.27175054     0.11971348     0.23598271     0.37929871     0             -4117.208      -4117.208      -10898.015    
    195500   0              707.82463     -0.28220936     0.11329896     0.24038392     0.38763798     0             -4119.2949     -4119.2949     -10898.015    
    196000   0              710.98291     -0.25568138     0.098676579    0.24057593     0.36467357     0             -4117.8046     -4117.8046     -10898.015    
    196500   0              743.7002      -0.26285227     0.045347175    0.26735976     0.37766245     0             -4118.0464     -4118.0464     -10898.015    
    197000   0              795.2687      -0.27640162     0.038641189    0.26677987     0.38608612     0             -4117.8258     -4117.8258     -10898.015    
    197500   0              740.62537     -0.26471051     0.03859373     0.28230233     0.38891611     0             -4118.0035     -4118.0035     -10898.015    
    198000   0              877.30416     -0.27501004     0.038129137    0.25719252     0.37846049     0             -4116.3113     -4116.3113     -10898.015    
    198500   0              742.68709     -0.29211411     0.035774513    0.25585211     0.38996253     0             -4118.4189     -4118.4189     -10898.015    
    199000   0              732.94599     -0.29281151     0.028533947    0.24766573     0.38456609     0             -4117.6486     -4117.6486     -10898.015    
    199500   0              789.08158     -0.2700374      0.026798528    0.24679335     0.3668042      0             -4117.2734     -4117.2734     -10898.015    
    200000   0              784.16426     -0.26600919     0.043910098    0.26031994     0.37477388     0             -4117.5008     -4117.5008     -10898.015    
    200500   0              766.88348     -0.2575674      0.070980405    0.26774659     0.37824254     0             -4117.6963     -4117.6963     -10898.015    
    201000   0              792.76566     -0.26408541     0.070417578    0.2582971      0.37605469     0             -4117.0705     -4117.0705     -10898.015    
    201500   0              786.01661     -0.26324144     0.093971838    0.25099936     0.37566932     0             -4116.8173     -4116.8173     -10898.015    
    202000   0              794.5826      -0.26376316     0.089134372    0.24440949     0.37047529     0             -4116.7557     -4116.7557     -10898.015    
    202500   0              804.23483     -0.28778874     0.11612832     0.23749278     0.3907825      0             -4117.5451     -4117.5451     -10898.015    
    203000   0              837.43345     -0.27823032     0.13813959     0.23273139     0.3881476      0             -4117.019      -4117.019      -10898.015    
    203500   0              735.89592     -0.29432824     0.14705952     0.22684337     0.39964175     0             -4118.1797     -4118.1797     -10898.015    
    204000   0              746.08896     -0.27565613     0.15870666     0.21769096     0.38543931     0             -4118.3129     -4118.3129     -10898.015    
    204500   0              706.51222     -0.25287915     0.14496312     0.22277974     0.36686916     0             -4119.1397     -4119.1397     -10898.015    
    205000   0              808.97937     -0.25439998     0.12325703     0.20942357     0.35180944     0             -4117.5968     -4117.5968     -10898.015    
    205500   0              755.2282      -0.23873692     0.10964874     0.19264146     0.3257743      0             -4117.8528     -4117.8528     -10898.015    
    206000   0              797.92061     -0.25098641     0.10706053     0.19268167     0.33403946     0             -4116.9251     -4116.9251     -10898.015    
    206500   0              734.39274     -0.27660625     0.10199458     0.19717382     0.35467087     0             -4118.0083     -4118.0083     -10898.015    
    207000   0              735.97634     -0.27809454     0.082761018    0.19799985     0.35126898     0             -4118.2401     -4118.2401     -10898.015    
    207500   0              783.73324     -0.27578548     0.053707686    0.20817442     0.34968377     0             -4118.3222     -4118.3222     -10898.015    
    208000   0              743.06023     -0.2683886      0.053146855    0.2308295      0.35796548     0             -4118.8063     -4118.8063     -10898.015    
    208500   0              756.75076     -0.25800004     0.065909613    0.23976535     0.35832321     0             -4117.9143     -4117.9143     -10898.015    
    209000   0              740.42372     -0.26894172     0.024112448    0.21940063     0.34791909     0             -4118.3706     -4118.3706     -10898.015    
    209500   0              761.48882     -0.2864184      0.013301176    0.25571138     0.38418841     0             -4118.1266     -4118.1266     -10898.015    
    210000   0              758.30116     -0.29632715     0.036743444    0.24160097     0.38409749     0             -4118.1431     -4118.1431     -10898.015    
    210500   0              800.45294     -0.29412173     0.031688246    0.23550665     0.37812051     0             -4117.5104     -4117.5104     -10898.015    
    211000   0              807.14239     -0.30220092     0.025099939    0.22240242     0.37605616     0             -4116.9706     -4116.9706     -10898.015    
    211500   0              767.84759     -0.30985663     0.032906605    0.21361915     0.37779243     0             -4117.4257     -4117.4257     -10898.015    
    212000   0              765.74336     -0.31544373     0.028831191    0.20986584     0.37997323     0             -4117.8964     -4117.8964     -10898.015    
    212500   0              787.04154     -0.32689402     0.025964108    0.21315413     0.39111189     0             -4118.2437     -4118.2437     -10898.015    
    213000   0              723.87969     -0.32685702     0.021198219    0.22905209     0.39968704     0             -4119.131      -4119.131      -10898.015    
    213500   0              715.35957     -0.32710008     0.0057595956   0.24561903     0.40909209     0             -4119.4233     -4119.4233     -10898.015    
    214000   0              767.81143     -0.33568863     0.018451062    0.23712316     0.41140575     0             -4118.3657     -4118.3657     -10898.015    
    214500   0              769.8649      -0.34173972     0.023041331    0.2288715      0.41194551     0             -4118.0867     -4118.0867     -10898.015    
    215000   0              724.90976     -0.35363044     0.020622284    0.21725533     0.41554741     0             -4118.7106     -4118.7106     -10898.015    
    215500   0              779.85376     -0.37227359     0.028959315    0.22610632     0.43652072     0             -4118.9673     -4118.9673     -10898.015    
    216000   0              694.84139     -0.35676418    -7.219342e-05   0.21248305     0.41524659     0             -4118.9008     -4118.9008     -10898.015    
    216500   0              748.34595     -0.34047632    -0.0020140215   0.19008289     0.38994832     0             -4117.9787     -4117.9787     -10898.015    
    217000   0              751.60017     -0.34789887    -0.0028159476   0.17591404     0.38985549     0             -4118.4633     -4118.4633     -10898.015    
    217500   0              779.68663     -0.35013343     0.009376459    0.190257       0.39859636     0             -4117.6161     -4117.6161     -10898.015    
    218000   0              793.80991     -0.36455932     0.011350872    0.1664158      0.40090717     0             -4117.8782     -4117.8782     -10898.015    
    218500   0              819.42386     -0.36080972     0.026809381    0.15041037     0.39182352     0             -4117.4974     -4117.4974     -10898.015    
    219000   0              734.84838     -0.37786287     0.047451875    0.15158194     0.40988915     0             -4118.715      -4118.715      -10898.015    
    219500   0              748.3293      -0.37257235     0.075924021    0.16074206     0.41281064     0             -4118.6077     -4118.6077     -10898.015    
    220000   0              750.23302     -0.37675505     0.065034671    0.1537595      0.4120872      0             -4118.5572     -4118.5572     -10898.015    
    220500   0              742.51098     -0.37298848     0.031863668    0.12725923     0.39538666     0             -4117.9213     -4117.9213     -10898.015    
    221000   0              719.03942     -0.38163163     0.0058471881   0.12525279     0.40170282     0             -4118.5823     -4118.5823     -10898.015    
    221500   0              795.30227     -0.36890455     0.029385763    0.12285675     0.38993316     0             -4117.9211     -4117.9211     -10898.015    
    222000   0              794.16038     -0.3641326      0.012581155    0.13425698     0.38829856     0             -4117.3747     -4117.3747     -10898.015    
    222500   0              811.96275     -0.35097691    -0.006179055    0.12230294     0.37172702     0             -4117.0149     -4117.0149     -10898.015    
    223000   0              824.20151     -0.33846684    -0.0024299671   0.1213916      0.35958536     0             -4116.9044     -4116.9044     -10898.015    
    223500   0              763.16135     -0.35508415    -0.0055810334   0.1443879      0.38335854     0             -4118.0324     -4118.0324     -10898.015    
    224000   0              764.17814     -0.33488967    -0.028236372    0.15207431     0.36888342     0             -4118.3591     -4118.3591     -10898.015    
    224500   0              717.48147     -0.36375552    -0.054353085    0.12564529     0.38866319     0             -4118.4204     -4118.4204     -10898.015    
    225000   0              805.69922     -0.36330822    -0.043441675    0.11987611     0.38503288     0             -4117.5728     -4117.5728     -10898.015    
    225500   0              735.11445     -0.36005638    -0.040770824    0.11094503     0.37896129     0             -4118.2483     -4118.2483     -10898.015    
    226000   0              745.42976     -0.36539326    -0.03052915     0.1291071      0.38873244     0             -4119.1189     -4119.1189     -10898.015    
    226500   0              795.73001     -0.36051759    -0.0029681551   0.13005153     0.38326902     0             -4118.4488     -4118.4488     -10898.015    
    227000   0              795.92477     -0.34537313    -0.018551271    0.13990838     0.37309664     0             -4117.5068     -4117.5068     -10898.015    
    227500   0              857.22777     -0.32794897    -0.0089117243   0.11918049     0.34904718     0             -4115.8489     -4115.8489     -10898.015    
    228000   0              798.98438     -0.32550318    -0.0070150212   0.13330577     0.3518124      0             -4116.2325     -4116.2325     -10898.015    
    228500   0              766.7706      -0.3264031      0.045912654    0.15826184     0.36564158     0             -4117.8478     -4117.8478     -10898.015    
    229000   0              724.54718     -0.30223545     0.050904357    0.16085964     0.34614064     0             -4118.3887     -4118.3887     -10898.015    
    229500   0              773.82922     -0.28931006     0.042488187    0.13770219     0.32321425     0             -4117.4628     -4117.4628     -10898.015    
    230000   0              775.48308     -0.26442348     0.029261794    0.15728877     0.30905628     0             -4116.1088     -4116.1088     -10898.015    
    230500   0              762.16251     -0.27648784     0.042626146    0.17799669     0.33158006     0             -4117.88       -4117.88       -10898.015    
[...]
    243000   0              774.79723     -0.22785992     0.064164727    0.16065586     0.28609012     0             -4117.6963     -4117.6963     -10898.015    
    243500   0              776.34079     -0.19218859     0.060814367    0.17883647     0.26947602     0             -4117.2166     -4117.2166     -10898.015    
    244000   0              767.51706     -0.20287895     0.047453452    0.15338066     0.25872249     0             -4117.6174     -4117.6174     -10898.015    
    244500   0              793.38607     -0.18693492     0.065892801    0.143098       0.24446588     0             -4116.7704     -4116.7704     -10898.015    
    245000   0              762.87844     -0.21873455     0.074533751    0.14398884     0.27227352     0             -4117.3841     -4117.3841     -10898.015    
    245500   0              738.24643     -0.22501106     0.088042325    0.13538387     0.2769661      0             -4118.5374     -4118.5374     -10898.015    
    246000   0              764.89519     -0.24116835     0.045202815    0.13235814     0.27879051     0             -4118.2905     -4118.2905     -10898.015    
    246500   0              800.02449     -0.22016993     0.042214096    0.12153317     0.25500419     0             -4116.6386     -4116.6386     -10898.015    
    247000   0              805.17326     -0.211767       0.052972599    0.11336471     0.2459734      0             -4116.184      -4116.184      -10898.015    
    247500   0              736.86512     -0.21539891     0.053925013    0.11777427     0.25134713     0             -4117.6248     -4117.6248     -10898.015    
    248000   0              769.72092     -0.21567979     0.0595654      0.13522787     0.26144289     0             -4117.4087     -4117.4087     -10898.015    
    248500   0              792.42107     -0.18958763     0.091938226    0.15021129     0.25876542     0             -4117.545      -4117.545      -10898.015    
    249000   0              771.37178     -0.19606056     0.079107582    0.14466196     0.25617344     0             -4117.0669     -4117.0669     -10898.015    
    249500   0              751.09227     -0.17068534     0.093563631    0.16741975     0.25674309     0             -4116.7099     -4116.7099     -10898.015    
    250000   0              834.96722     -0.15782543     0.081284071    0.18209567     0.2543124      0             -4115.0403     -4115.0403     -10898.015    
    250500   0              807.84561     -0.19238519     0.105083       0.17876583     0.28286343     0             -4115.8948     -4115.8948     -10898.015    
    251000   0              794.78052     -0.19828281     0.10998272     0.19791764     0.3009712      0             -4116.7876     -4116.7876     -10898.015    
    251500   0              819.6787      -0.19128793     0.10048429     0.21551054     0.30517693     0             -4115.6506     -4115.6506     -10898.015    
    252000   0              798.99412     -0.20391833     0.1238048      0.22133938     0.325425       0             -4117.6692     -4117.6692     -10898.015    
    252500   0              788.76211     -0.19372396     0.12131308     0.19857738     0.30278509     0             -4117.3504     -4117.3504     -10898.015    
    253000   0              709.33699     -0.19770054     0.12996486     0.21686641     0.32094767     0             -4118.2831     -4118.2831     -10898.015    
    253500   0              781.14685     -0.17453322     0.10964152     0.22764206     0.3070896      0             -4117.7253     -4117.7253     -10898.015    
    254000   0              798.48815     -0.17327759     0.097115353    0.23559632     0.30815928     0             -4117.3393     -4117.3393     -10898.015    
    254500   0              748.02294     -0.17429259     0.10815546     0.2622182      0.33291726     0             -4118.5191     -4118.5191     -10898.015    
    255000   0              786.35442     -0.17589637     0.10701684     0.27293691     0.34188696     0             -4117.2783     -4117.2783     -10898.015    
    255500   0              736.57616     -0.19026448     0.10450383     0.26683923     0.34398372     0             -4118.2236     -4118.2236     -10898.015    
    256000   0              789.75229     -0.19195992     0.103624       0.2619985      0.34092486     0             -4116.9151     -4116.9151     -10898.015    
    256500   0              752.51288     -0.1757347      0.10698181     0.27089181     0.34016197     0             -4116.7269     -4116.7269     -10898.015    
    257000   0              769.65797     -0.16819522     0.12636007     0.30345515     0.36924454     0             -4117.9188     -4117.9188     -10898.015    
    257500   0              782.9174      -0.16679791     0.15286931     0.31226901     0.38561963     0             -4118.1817     -4118.1817     -10898.015    
    258000   0              787.09356     -0.14544302     0.15966809     0.31366106     0.38082914     0             -4117.5425     -4117.5425     -10898.015    
    258500   0              748.90802     -0.15146623     0.15487239     0.30580526     0.37475904     0             -4119.0422     -4119.0422     -10898.015    
    259000   0              778.2001      -0.14914844     0.1410015      0.29572162     0.35996939     0             -4117.2347     -4117.2347     -10898.015    
    259500   0              700.01095     -0.17725667     0.11864294     0.29312191     0.36251418     0             -4118.1814     -4118.1814     -10898.015    
    260000   0              764.64048     -0.15868756     0.1172828      0.28604686     0.34750511     0             -4117.1311     -4117.1311     -10898.015    
    260500   0              794.70834     -0.16424018     0.094257469    0.27485607     0.33377412     0             -4116.5779     -4116.5779     -10898.015    
    261000   0              848.47833     -0.14961735     0.090105056    0.27444745     0.32530859     0             -4116.6959     -4116.6959     -10898.015    
    261500   0              805.36881     -0.1585438      0.10443866     0.26590495     0.32672467     0             -4116.5065     -4116.5065     -10898.015    
    262000   0              785.06585     -0.16878925     0.09329341     0.25754379     0.32174878     0             -4117.1006     -4117.1006     -10898.015    
    262500   0              764.36111     -0.18643073     0.075551959    0.24156554     0.31435398     0             -4117.2322     -4117.2322     -10898.015    
    263000   0              761.53193     -0.18156476     0.094264938    0.22573533     0.30464418     0             -4117.7122     -4117.7122     -10898.015    
    263500   0              839.05821     -0.19077803     0.063151419    0.23470911     0.30898661     0             -4116.0157     -4116.0157     -10898.015    
    264000   0              768.49283     -0.17187715     0.068576621    0.22103263     0.28827059     0             -4117.2037     -4117.2037     -10898.015    
    264500   0              789.00911     -0.14812591     0.05938023     0.2421207      0.28998229     0             -4116.7976     -4116.7976     -10898.015    
    265000   0              761.0873      -0.14992412     0.057501812    0.24726964     0.29483211     0             -4116.0448     -4116.0448     -10898.015    
    265500   0              794.83054     -0.15082733     0.055537218    0.24439452     0.29250974     0             -4116.3499     -4116.3499     -10898.015    
    266000   0              753.04298     -0.15012261     0.041664936    0.2778083      0.3185125      0             -4118.3102     -4118.3102     -10898.015    
    266500   0              719.0497      -0.16142818     0.035433224    0.25507364     0.30393607     0             -4118.2796     -4118.2796     -10898.015    
    267000   0              798.27911     -0.15671227     0.040806364    0.25420938     0.3014072      0             -4116.6947     -4116.6947     -10898.015    
    267500   0              783.74275     -0.15283838     0.03693529     0.25525336     0.29979671     0             -4117.0764     -4117.0764     -10898.015    
    268000   0              773.07122     -0.13798825     0.044395562    0.25472923     0.29308481     0             -4118.2503     -4118.2503     -10898.015    
    268500   0              767.43438     -0.12883727     0.061245817    0.24747439     0.28564605     0             -4117.811      -4117.811      -10898.015    
    269000   0              774.2363      -0.13970076     0.069529785    0.25181149     0.29624267     0             -4118.2676     -4118.2676     -10898.015    
    269500   0              748.75628     -0.16305668     0.063126231    0.26467877     0.31721799     0             -4118.1641     -4118.1641     -10898.015    
    270000   0              739.61537     -0.13115398     0.041371844    0.25844215     0.29275474     0             -4118.0491     -4118.0491     -10898.015    
    270500   0              801.24323     -0.13264725     0.028618835    0.26459151     0.29736005     0             -4117.4165     -4117.4165     -10898.015    
    271000   0              835.5084      -0.13184692     0.011203329    0.24931575     0.28225426     0             -4116.6229     -4116.6229     -10898.015    
    271500   0              838.65256     -0.12842567     0.014802739    0.27675058     0.30545566     0             -4116.2574     -4116.2574     -10898.015    
    272000   0              780.73774     -0.12614594     0.018209472    0.29826246     0.32435301     0             -4116.8792     -4116.8792     -10898.015    
    272500   0              829.81041     -0.12904562     0.0059613895   0.293206       0.32040298     0             -4116.2932     -4116.2932     -10898.015    
    273000   0              842.00547     -0.13821644     0.011797888    0.3014208      0.3318094      0             -4116.1394     -4116.1394     -10898.015    
    273500   0              815.41547     -0.12613035     0.0090589063   0.28073698     0.30790288     0             -4116.1804     -4116.1804     -10898.015    
    274000   0              798.16914     -0.1373272      0.0184126      0.28129754     0.31356991     0             -4115.9751     -4115.9751     -10898.015    
    274500   0              778.47233     -0.16729537    -0.0032715131   0.27071176     0.31825038     0             -4117.7669     -4117.7669     -10898.015    
    275000   0              814.63078     -0.13676529    -0.0042067148   0.2922449      0.32269106     0             -4117.3851     -4117.3851     -10898.015    
    275500   0              748.6444      -0.13241725    -0.019004787    0.31429996     0.3415845      0             -4118.2023     -4118.2023     -10898.015    
    276000   0              759.27593     -0.12911437    -0.053873139    0.30589979     0.33637407     0             -4118.5624     -4118.5624     -10898.015    
    276500   0              767.06383     -0.12308077    -0.069427267    0.28890438     0.32161276     0             -4117.9361     -4117.9361     -10898.015    
    277000   0              768.03996     -0.14302148    -0.058974541    0.29255041     0.33093637     0             -4117.4262     -4117.4262     -10898.015    
    277500   0              809.43215     -0.12288228    -0.062727496    0.32575911     0.35377082     0             -4118.5606     -4118.5606     -10898.015    
    278000   0              791.30893     -0.1153329     -0.065302426    0.3120145      0.33899724     0             -4117.9363     -4117.9363     -10898.015    
    278500   0              745.67555     -0.088467822   -0.0990144      0.32413287     0.35027492     0             -4118.7857     -4118.7857     -10898.015    
    279000   0              762.70951     -0.10505746    -0.078603208    0.32352951     0.34912301     0             -4118.4283     -4118.4283     -10898.015    
    279500   0              778.91305     -0.094124841   -0.098401512    0.31809586     0.34601635     0             -4117.5075     -4117.5075     -10898.015    
    280000   0              746.84759     -0.075374464   -0.079891084    0.31501959     0.3336184      0             -4118.145      -4118.145      -10898.015    
    280500   0              827.54146     -0.069729588   -0.10586963     0.3238984      0.3478229      0             -4117.2984     -4117.2984     -10898.015    
    281000   0              781.81112     -0.060356752   -0.10845234     0.31582713     0.33933999     0             -4117.0358     -4117.0358     -10898.015    
    281500   0              743.32909     -0.068469663   -0.11420766     0.33475488     0.36026701     0             -4118.4712     -4118.4712     -10898.015    
    282000   0              783.69242     -0.095665679   -0.10605701     0.31604064     0.34681652     0             -4117.1299     -4117.1299     -10898.015    
    282500   0              827.48731     -0.10709437    -0.088655923    0.31529601     0.34458765     0             -4116.424      -4116.424      -10898.015    
    283000   0              844.87453     -0.11461244    -0.10475302     0.33264        0.36709477     0             -4116.945      -4116.945      -10898.015    
    283500   0              813.3069      -0.09736221    -0.11758599     0.31934668     0.35396069     0             -4116.4905     -4116.4905     -10898.015    
    284000   0              776.9759      -0.11155846    -0.1045332      0.32514372     0.35929225     0             -4117.5862     -4117.5862     -10898.015    
    284500   0              757.80919     -0.14556407    -0.086193211    0.34458926     0.38387488     0             -4118.3659     -4118.3659     -10898.015    
    285000   0              755.18302     -0.16783499    -0.13540919     0.33535588     0.39870766     0             -4119.0197     -4119.0197     -10898.015    
    285500   0              812.2406      -0.17310943    -0.1288066      0.3179535      0.3842557      0             -4117.814      -4117.814      -10898.015    
    286000   0              710.61649     -0.16615594    -0.1177505      0.31017071     0.371051       0             -4118.9865     -4118.9865     -10898.015    
    286500   0              810.79438     -0.13972024    -0.13321354     0.29133681     0.3494921      0             -4117.053      -4117.053      -10898.015    
    287000   0              773.67361     -0.14330654    -0.090372712    0.29129598     0.33698269     0             -4117.4835     -4117.4835     -10898.015    
    287500   0              772.86568     -0.16764476    -0.10115251     0.29001749     0.34992391     0             -4116.9931     -4116.9931     -10898.015    
    288000   0              803.30234     -0.15365815    -0.11265782     0.30486005     0.3595028      0             -4117.1451     -4117.1451     -10898.015    
    288500   0              722.8241      -0.16401576    -0.12327804     0.32302589     0.3826805      0             -4118.1399     -4118.1399     -10898.015    
    289000   0              742.70751     -0.16199552    -0.13822851     0.30315281     0.37047442     0             -4117.7908     -4117.7908     -10898.015    
    289500   0              796.16728     -0.15062441    -0.16673246     0.30643979     0.37999049     0             -4117.5245     -4117.5245     -10898.015    
    290000   0              731.36313     -0.17451758    -0.19305278     0.29263162     0.39161081     0             -4118.6914     -4118.6914     -10898.015    
    290500   0              799.11472     -0.19266119    -0.16810468     0.29329634     0.38910187     0             -4117.8004     -4117.8004     -10898.015    
    291000   0              712.03104     -0.19217395    -0.17466158     0.29213682     0.39087263     0             -4118.8552     -4118.8552     -10898.015    
    291500   0              803.60189     -0.19290808    -0.20056893     0.25654279     0.37849125     0             -4117.2835     -4117.2835     -10898.015    
    292000   0              792.85707     -0.20934739    -0.20751225     0.2344678      0.3766468      0             -4117.5638     -4117.5638     -10898.015    
    292500   0              881.02642     -0.1965026     -0.17718985     0.23674663     0.35504715     0             -4115.9122     -4115.9122     -10898.015    
    293000   0              786.18876     -0.22701432    -0.19721647     0.22903327     0.37800275     0             -4116.8638     -4116.8638     -10898.015    
    293500   0              739.67506     -0.22151236    -0.18661464     0.24218243     0.37755143     0             -4118.2755     -4118.2755     -10898.015    
    294000   0              768.01669     -0.20120844    -0.20295733     0.26399323     0.38906162     0             -4118.8367     -4118.8367     -10898.015    
    294500   0              790.3108      -0.18959475    -0.18501792     0.25600774     0.36839892     0             -4118.1871     -4118.1871     -10898.015    
    295000   0              760.25037     -0.19790203    -0.21178486     0.24480436     0.37940376     0             -4117.8943     -4117.8943     -10898.015    
    295500   0              775.65291     -0.19964364    -0.21642092     0.25327462     0.38838593     0             -4117.5637     -4117.5637     -10898.015    
    296000   0              785.17117     -0.19233983    -0.21361851     0.25914442     0.38701849     0             -4117.5918     -4117.5918     -10898.015    
    296500   0              702.87832     -0.1845969     -0.20025431     0.27393744     0.38628943     0             -4118.6379     -4118.6379     -10898.015    
    297000   0              754.93888     -0.18331713    -0.20901406     0.29094304     0.40241757     0             -4118.5476     -4118.5476     -10898.015    
    297500   0              815.65544     -0.17599566    -0.20461397     0.32136624     0.41966369     0             -4118.1708     -4118.1708     -10898.015    
    298000   0              726.87246     -0.18638716    -0.19474792     0.34416189     0.43716625     0             -4119.5489     -4119.5489     -10898.015    
    298500   0              719.52144     -0.19356327    -0.19682714     0.32958255     0.4299213      0             -4119.2736     -4119.2736     -10898.015    
    299000   0              752.66671     -0.16442177    -0.18834057     0.32188359     0.40757298     0             -4118.4048     -4118.4048     -10898.015    
    299500   0              780.88749     -0.13717215    -0.22023607     0.31029345     0.40447763     0             -4117.241      -4117.241      -10898.015    
    300000   0              728.20029     -0.16293711    -0.24417594     0.30907125     0.42625747     0             -4118.5866     -4118.5866     -10898.015    
Loop time of 293.645 on 8 procs for 300000 steps with 1067 atoms

Performance: 88.270 ns/day, 0.272 hours/ns, 1021.643 timesteps/s, 1.090 Matom-step/s
195.6% CPU use with 4 MPI tasks x 2 OpenMP threads

MPI task timing breakdown:
Section |  min time  |  avg time  |  max time  |%varavg| %total
---------------------------------------------------------------
Pair    | 56.699     | 61.157     | 69.035     |  63.6 | 20.83
Neigh   | 0          | 0          | 0          |   0.0 |  0.00
Comm    | 6.4148     | 14.122     | 18.686     | 131.5 |  4.81
Output  | 0.017885   | 0.021937   | 0.033891   |   4.7 |  0.01
Modify  | 218.07     | 218.24     | 218.52     |   1.2 | 74.32
Other   |            | 0.106      |            |       |  0.04

Nlocal:         266.75 ave         313 max         239 min
Histogram: 2 0 0 0 0 1 0 0 0 1
Nghost:         269.25 ave         350 max         207 min
Histogram: 1 0 1 0 1 0 0 0 0 1
Neighs:        6368.25 ave        7772 max        5197 min
Histogram: 1 0 0 1 1 0 0 0 0 1
FullNghs:         5573 ave        6762 max        4777 min
Histogram: 1 0 1 1 0 0 0 0 0 1

Total # of neighbors = 25473
Ave neighs/atom = 23.873477
Neighbor list builds = 0
Dangerous builds = 0
Total wall time: 0:04:53
