ITEM: TIMESTEP
0
ITEM: NUMBER OF ATOMS
1260
ITEM: BOX BOUNDS pp pp pp
-2.5000000000000000e+01 2.5000000000000000e+01
-2.5000000000000000e+01 2.5000000000000000e+01
-2.5000000000000000e+01 2.5000000000000000e+01
ITEM: ATOMS type id x y z c_outsp[1] c_outsp[2] c_outsp[3] c_peAtom c_keAtom
1 1 -4.29975 -4.29975 -10.0328 0 0 1 -3.02581 0
2 2 -1.43325 -4.29975 -10.0328 0 0 1 -3.31377 0
1 3 1.43325 -4.29975 -10.0328 0 0 1 -3.23848 0
1 4 4.29975 -4.29975 -10.0328 0 0 1 -3.03579 0
1 5 -10.0328 -1.43325 -10.0328 0 0 1 -3.06915 0
1 6 -7.16625 -1.43325 -10.0328 0 0 1 -3.43127 0
1 7 -4.29975 -1.43325 -10.0328 0 0 1 -3.69325 0
2 8 -1.43325 -1.43325 -10.0328 0 0 1 -3.95978 0
1 9 1.43325 -1.43325 -10.0328 0 0 1 -3.69252 0
2 10 4.29975 -1.43325 -10.0328 0 0 1 -3.91817 0
2 11 7.16625 -1.43325 -10.0328 0 0 1 -3.61241 0
1 12 10.0328 -1.43325 -10.0328 0 0 1 -3.02914 0
2 13 -10.0328 1.43325 -10.0328 0 0 1 -3.1306 0
1 14 -7.16625 1.43325 -10.0328 0 0 1 -3.48061 0
2 15 -5.733 0 -11.466 0 0 1 -2.94802 0
2 16 -4.29975 1.43325 -10.0328 0 0 1 -4.1132 0
2 17 -2.8665 0 -11.466 0 0 1 -3.25589 0
2 18 -1.43325 1.43325 -10.0328 0 0 1 -4.24726 0
1 28 -2.8665 2.8665 -11.466 0 0 1 -3.06368 0
2 19 0 0 -11.466 0 0 1 -3.32018 0
1 20 1.43325 1.43325 -10.0328 0 0 1 -3.97051 0
2 21 2.8665 0 -11.466 0 0 1 -3.31088 0
1 30 0 2.8665 -11.466 0 0 1 -3.2305 0
1 32 2.8665 2.8665 -11.466 0 0 1 -3.05842 0
1 22 4.29975 1.43325 -10.0328 0 0 1 -3.79202 0
2 23 5.733 0 -11.466 0 0 1 -2.91975 0
1 24 7.16625 1.43325 -10.0328 0 0 1 -3.57798 0
1 25 10.0328 1.43325 -10.0328 0 0 1 -3.11776 0
1 26 -7.16625 4.29975 -10.0328 0 0 1 -3.10875 0
1 27 -4.29975 4.29975 -10.0328 0 0 1 -3.57321 0
1 29 -1.43325 4.29975 -10.0328 0 0 1 -3.69496 0
2 31 1.43325 4.29975 -10.0328 0 0 1 -3.98702 0
2 33 4.29975 4.29975 -10.0328 0 0 1 -3.76917 0
1 34 7.16625 4.29975 -10.0328 0 0 1 -3.08379 0
1 35 -4.29975 7.16625 -10.0328 0 0 1 -3.1032 0
1 36 -1.43325 7.16625 -10.0328 0 0 1 -3.2283 0
2 37 1.43325 7.16625 -10.0328 0 0 1 -3.32348 0
2 38 4.29975 7.16625 -10.0328 0 0 1 -3.18965 0
2 39 -7.16625 -7.16625 -7.16625 0 0 1 -3.64207 0
1 40 -4.29975 -7.16625 -7.16625 0 0 1 -3.52974 0
1 41 -1.43325 -7.16625 -7.16625 0 0 1 -3.54906 0
2 42 1.43325 -7.16625 -7.16625 0 0 1 -3.80321 0
2 43 4.29975 -7.16625 -7.16625 0 0 1 -3.84408 0
1 44 7.16625 -7.16625 -7.16625 0 0 1 -3.4255 0
1 45 -12.8992 -4.29975 -7.16625 0 0 1 -3.01775 0
2 46 -10.0328 -4.29975 -7.16625 0 0 1 -4.01494 0
1 47 -8.5995 -5.733 -8.5995 0 0 1 -2.87567 0
1 48 -7.16625 -4.29975 -7.16625 0 0 1 -3.88098 0
1 49 -5.733 -5.733 -8.5995 0 0 1 -3.4347 0
2 50 -4.29975 -4.29975 -7.16625 0 0 1 -4.33686 0
1 51 -2.8665 -5.733 -8.5995 0 0 1 -3.50929 0
1 52 -1.43325 -4.29975 -7.16625 0 0 1 -4.04379 0
2 53 0 -5.733 -8.5995 0 0 1 -3.77631 0
1 54 1.43325 -4.29975 -7.16625 0 0 1 -4.13904 0
1 55 2.8665 -5.733 -8.5995 0 0 1 -3.50541 0
2 56 4.29975 -4.29975 -7.16625 0 0 1 -4.34715 0
1 57 5.733 -5.733 -8.5995 0 0 1 -3.4042 0
1 58 7.16625 -4.29975 -7.16625 0 0 1 -3.94189 0
1 59 8.5995 -5.733 -8.5995 0 0 1 -2.90126 0
1 60 10.0328 -4.29975 -7.16625 0 0 1 -3.75383 0
1 61 12.8992 -4.29975 -7.16625 0 0 1 -3.06395 0
1 62 -15.7657 -1.43325 -7.16625 0 0 1 -2.83626 0
1 63 -12.8992 -1.43325 -7.16625 0 0 1 -3.78161 0
1 64 -11.466 -2.8665 -8.5995 0 0 1 -3.29283 0
1 65 -10.0328 -1.43325 -7.16625 0 0 1 -4.1243 0
1 66 -8.5995 -2.8665 -8.5995 0 0 1 -3.74283 0
2 67 -7.16625 -1.43325 -7.16625 0 0 1 -4.39248 0
1 68 -5.733 -2.8665 -8.5995 0 0 1 -3.92818 0
1 69 -4.29975 -1.43325 -7.16625 0 0 1 -4.10335 0
1 70 -2.8665 -2.8665 -8.5995 0 0 1 -4.03039 0
2 71 -1.43325 -1.43325 -7.16625 0 0 1 -4.37572 0
1 72 0 -2.8665 -8.5995 0 0 1 -3.92161 0
1 73 1.43325 -1.43325 -7.16625 0 0 1 -4.14428 0
2 74 2.8665 -2.8665 -8.5995 0 0 1 -4.23635 0
2 75 4.29975 -1.43325 -7.16625 0 0 1 -4.43721 0
1 76 5.733 -2.8665 -8.5995 0 0 1 -3.8304 0
2 77 7.16625 -1.43325 -7.16625 0 0 1 -4.39613 0
1 78 8.5995 -2.8665 -8.5995 0 0 1 -3.74254 0
2 79 10.0328 -1.43325 -7.16625 0 0 1 -4.40494 0
1 80 11.466 -2.8665 -8.5995 0 0 1 -3.2954 0
2 81 12.8992 -1.43325 -7.16625 0 0 1 -3.96397 0
1 82 15.7657 -1.43325 -7.16625 0 0 1 -2.82208 0
2 83 -15.7657 1.43325 -7.16625 0 0 1 -3.10335 0
1 84 -12.8992 1.43325 -7.16625 0 0 1 -3.7367 0
1 85 -11.466 0 -8.5995 0 0 1 -3.55584 0
1 86 -10.0328 1.43325 -7.16625 0 0 1 -4.02363 0
2 105 -11.466 2.8665 -8.5995 0 0 1 -3.57241 0
1 87 -8.5995 0 -8.5995 0 0 1 -4.06777 0
2 88 -7.16625 1.43325 -7.16625 0 0 1 -4.38242 0
1 107 -8.5995 2.8665 -8.5995 0 0 1 -3.82821 0
1 89 -5.733 0 -8.5995 0 0 1 -4.10177 0
1 90 -4.29975 1.43325 -7.16625 0 0 1 -4.11892 0
1 109 -5.733 2.8665 -8.5995 0 0 1 -4.03744 0
1 91 -2.8665 0 -8.5995 0 0 1 -4.08997 0
1 92 -1.43325 1.43325 -7.16625 0 0 1 -4.10997 0
1 111 -2.8665 2.8665 -8.5995 0 0 1 -4.2123 0
2 93 0 0 -8.5995 0 0 1 -4.35722 0
1 94 1.43325 1.43325 -7.16625 0 0 1 -4.20137 0
1 95 2.8665 0 -8.5995 0 0 1 -4.0762 0
1 113 0 2.8665 -8.5995 0 0 1 -4.11408 0
1 115 2.8665 2.8665 -8.5995 0 0 1 -4.20912 0
2 96 4.29975 1.43325 -7.16625 0 0 1 -4.40874 0
1 97 5.733 0 -8.5995 0 0 1 -4.15463 0
1 117 5.733 2.8665 -8.5995 0 0 1 -4.02863 0
1 98 7.16625 1.43325 -7.16625 0 0 1 -4.15426 0
1 99 8.5995 0 -8.5995 0 0 1 -4.00454 0
2 119 8.5995 2.8665 -8.5995 0 0 1 -4.12413 0
1 100 10.0328 1.43325 -7.16625 0 0 1 -4.12214 0
1 101 11.466 0 -8.5995 0 0 1 -3.60564 0
1 121 11.466 2.8665 -8.5995 0 0 1 -3.30964 0
1 102 12.8992 1.43325 -7.16625 0 0 1 -3.69559 0
1 103 15.7657 1.43325 -7.16625 0 0 1 -3.12928 0
1 104 -12.8992 4.29975 -7.16625 0 0 1 -3.47127 0
2 106 -10.0328 4.29975 -7.16625 0 0 1 -4.24806 0
2 124 -11.466 5.733 -8.5995 0 0 1 -3.10235 0
2 108 -7.16625 4.29975 -7.16625 0 0 1 -4.37517 0
1 126 -8.5995 5.733 -8.5995 0 0 1 -3.4303 0
1 110 -4.29975 4.29975 -7.16625 0 0 1 -4.15243 0
1 128 -5.733 5.733 -8.5995 0 0 1 -3.85364 0
1 112 -1.43325 4.29975 -7.16625 0 0 1 -4.19652 0
1 130 -2.8665 5.733 -8.5995 0 0 1 -4.06157 0
1 114 1.43325 4.29975 -7.16625 0 0 1 -4.20641 0
1 132 0 5.733 -8.5995 0 0 1 -4.01999 0
1 134 2.8665 5.733 -8.5995 0 0 1 -4.01018 0
1 116 4.29975 4.29975 -7.16625 0 0 1 -4.1118 0
1 136 5.733 5.733 -8.5995 0 0 1 -3.80642 0
1 118 7.16625 4.29975 -7.16625 0 0 1 -4.12481 0
2 138 8.5995 5.733 -8.5995 0 0 1 -3.56799 0
2 120 10.0328 4.29975 -7.16625 0 0 1 -4.27425 0
2 140 11.466 5.733 -8.5995 0 0 1 -3.07435 0
2 122 12.8992 4.29975 -7.16625 0 0 1 -3.80846 0
2 123 -12.8992 7.16625 -7.16625 0 0 1 -3.09365 0
1 125 -10.0328 7.16625 -7.16625 0 0 1 -3.53141 0
1 127 -7.16625 7.16625 -7.16625 0 0 1 -3.83228 0
1 129 -4.29975 7.16625 -7.16625 0 0 1 -4.21484 0
1 143 -5.733 8.5995 -8.5995 0 0 1 -3.31221 0
1 131 -1.43325 7.16625 -7.16625 0 0 1 -4.21503 0
1 145 -2.8665 8.5995 -8.5995 0 0 1 -3.55925 0
1 133 1.43325 7.16625 -7.16625 0 0 1 -4.18552 0
2 147 0 8.5995 -8.5995 0 0 1 -3.79702 0
1 149 2.8665 8.5995 -8.5995 0 0 1 -3.54859 0
1 135 4.29975 7.16625 -7.16625 0 0 1 -4.03413 0
1 151 5.733 8.5995 -8.5995 0 0 1 -3.2923 0
2 137 7.16625 7.16625 -7.16625 0 0 1 -4.12042 0
2 139 10.0328 7.16625 -7.16625 0 0 1 -3.82816 0
1 141 12.8992 7.16625 -7.16625 0 0 1 -2.99178 0
2 142 -7.16625 10.0328 -7.16625 0 0 1 -3.08078 0
1 144 -4.29975 10.0328 -7.16625 0 0 1 -3.51085 0
1 146 -1.43325 10.0328 -7.16625 0 0 1 -3.60526 0
1 148 1.43325 10.0328 -7.16625 0 0 1 -3.56026 0
2 150 4.29975 10.0328 -7.16625 0 0 1 -3.79212 0
1 152 7.16625 10.0328 -7.16625 0 0 1 -3.00599 0
1 153 -4.29975 -10.0328 -4.29975 0 0 1 -3.02672 0
2 154 -1.43325 -10.0328 -4.29975 0 0 1 -3.32715 0
2 155 1.43325 -10.0328 -4.29975 0 0 1 -3.30277 0
1 156 4.29975 -10.0328 -4.29975 0 0 1 -3.02532 0
1 157 -12.8992 -7.16625 -4.29975 0 0 1 -3.07144 0
1 158 -10.0328 -7.16625 -4.29975 0 0 1 -3.79559 0
2 159 -8.5995 -8.5995 -5.733 0 0 1 -2.78436 0
1 160 -7.16625 -7.16625 -4.29975 0 0 1 -4.014 0
1 161 -5.733 -8.5995 -5.733 0 0 1 -3.39992 0
1 162 -4.29975 -7.16625 -4.29975 0 0 1 -4.18981 0
1 163 -2.8665 -8.5995 -5.733 0 0 1 -3.49988 0
2 164 -1.43325 -7.16625 -4.29975 0 0 1 -4.41235 0
2 165 0 -8.5995 -5.733 0 0 1 -3.73883 0
1 166 1.43325 -7.16625 -4.29975 0 0 1 -4.05544 0
1 167 2.8665 -8.5995 -5.733 0 0 1 -3.4584 0
2 168 4.29975 -7.16625 -4.29975 0 0 1 -4.33286 0
2 169 5.733 -8.5995 -5.733 0 0 1 -3.56002 0
1 170 7.16625 -7.16625 -4.29975 0 0 1 -3.92862 0
1 171 8.5995 -8.5995 -5.733 0 0 1 -2.86565 0
2 172 10.0328 -7.16625 -4.29975 0 0 1 -4.00398 0
1 173 12.8992 -7.16625 -4.29975 0 0 1 -3.04838 0
1 174 -15.7657 -4.29975 -4.29975 0 0 1 -3.10504 0
2 175 -12.8992 -4.29975 -4.29975 0 0 1 -4.23294 0
1 176 -11.466 -5.733 -5.733 0 0 1 -3.50511 0
1 177 -10.0328 -4.29975 -4.29975 0 0 1 -4.13394 0
1 178 -8.5995 -5.733 -5.733 0 0 1 -4.00252 0
1 179 -7.16625 -4.29975 -4.29975 0 0 1 -4.20937 0
1 180 -5.733 -5.733 -5.733 0 0 1 -4.17496 0
1 181 -4.29975 -4.29975 -4.29975 0 0 1 -4.10227 0
2 182 -2.8665 -5.733 -5.733 0 0 1 -4.3706 0
2 183 -1.43325 -4.29975 -4.29975 0 0 1 -4.36179 0
1 184 0 -5.733 -5.733 0 0 1 -4.071 0
1 185 1.43325 -4.29975 -4.29975 0 0 1 -4.15317 0
1 186 2.8665 -5.733 -5.733 0 0 1 -4.20197 0
1 187 4.29975 -4.29975 -4.29975 0 0 1 -4.05853 0
2 188 5.733 -5.733 -5.733 0 0 1 -4.40545 0
2 189 7.16625 -4.29975 -4.29975 0 0 1 -4.34998 0
1 190 8.5995 -5.733 -5.733 0 0 1 -3.98065 0
1 191 10.0328 -4.29975 -4.29975 0 0 1 -4.07346 0
2 192 11.466 -5.733 -5.733 0 0 1 -3.72154 0
1 193 12.8992 -4.29975 -4.29975 0 0 1 -4.03143 0
2 194 15.7657 -4.29975 -4.29975 0 0 1 -3.20399 0
1 195 -18.6322 -1.43325 -4.29975 0 0 1 -2.89604 0
1 196 -15.7657 -1.43325 -4.29975 0 0 1 -4.06662 0
2 197 -14.3325 -2.8665 -5.733 0 0 1 -3.9125 0
1 198 -12.8992 -1.43325 -4.29975 0 0 1 -4.18947 0
1 199 -11.466 -2.8665 -5.733 0 0 1 -4.1432 0
1 200 -10.0328 -1.43325 -4.29975 0 0 1 -4.18849 0
1 201 -8.5995 -2.8665 -5.733 0 0 1 -4.22683 0
1 202 -7.16625 -1.43325 -4.29975 0 0 1 -4.20143 0
1 203 -5.733 -2.8665 -5.733 0 0 1 -4.10044 0
1 204 -4.29975 -1.43325 -4.29975 0 0 1 -4.16239 0
2 205 -2.8665 -2.8665 -5.733 0 0 1 -4.40564 0
1 206 -1.43325 -1.43325 -4.29975 0 0 1 -4.09439 0
1 207 0 -2.8665 -5.733 0 0 1 -4.16766 0
1 208 1.43325 -1.43325 -4.29975 0 0 1 -4.19512 0
1 209 2.8665 -2.8665 -5.733 0 0 1 -4.09301 0
1 210 4.29975 -1.43325 -4.29975 0 0 1 -4.2126 0
2 211 5.733 -2.8665 -5.733 0 0 1 -4.37138 0
1 212 7.16625 -1.43325 -4.29975 0 0 1 -4.09822 0
1 213 8.5995 -2.8665 -5.733 0 0 1 -4.13957 0
1 214 10.0328 -1.43325 -4.29975 0 0 1 -4.21527 0
1 215 11.466 -2.8665 -5.733 0 0 1 -4.05616 0
1 216 12.8992 -1.43325 -4.29975 0 0 1 -4.09622 0
2 217 14.3325 -2.8665 -5.733 0 0 1 -3.87571 0
2 218 15.7657 -1.43325 -4.29975 0 0 1 -4.24255 0
2 219 18.6322 -1.43325 -4.29975 0 0 1 -2.84366 0
1 220 -18.6322 1.43325 -4.29975 0 0 1 -3.06506 0
1 221 -17.199 0 -5.733 0 0 1 -3.42399 0
1 222 -15.7657 1.43325 -4.29975 0 0 1 -4.10437 0
2 247 -17.199 2.8665 -5.733 0 0 1 -3.14052 0
1 223 -14.3325 0 -5.733 0 0 1 -3.96821 0
1 224 -12.8992 1.43325 -4.29975 0 0 1 -4.0866 0
2 249 -14.3325 2.8665 -5.733 0 0 1 -4.11538 0
1 225 -11.466 0 -5.733 0 0 1 -4.14593 0
2 226 -10.0328 1.43325 -4.29975 0 0 1 -4.358 0
2 251 -11.466 2.8665 -5.733 0 0 1 -4.39917 0
1 227 -8.5995 0 -5.733 0 0 1 -4.14579 0
1 228 -7.16625 1.43325 -4.29975 0 0 1 -4.09815 0
2 253 -8.5995 2.8665 -5.733 0 0 1 -4.37927 0
2 229 -5.733 0 -5.733 0 0 1 -4.39441 0
2 230 -4.29975 1.43325 -4.29975 0 0 1 -4.3972 0
2 255 -5.733 2.8665 -5.733 0 0 1 -4.4 0
2 231 -2.8665 0 -5.733 0 0 1 -4.39134 0
2 232 -1.43325 1.43325 -4.29975 0 0 1 -4.41335 0
1 257 -2.8665 2.8665 -5.733 0 0 1 -4.10057 0
1 233 0 0 -5.733 0 0 1 -4.10004 0
1 234 1.43325 1.43325 -4.29975 0 0 1 -4.19882 0
1 235 2.8665 0 -5.733 0 0 1 -4.20234 0
2 259 0 2.8665 -5.733 0 0 1 -4.38292 0
1 261 2.8665 2.8665 -5.733 0 0 1 -4.146 0
1 236 4.29975 1.43325 -4.29975 0 0 1 -4.13111 0
1 237 5.733 0 -5.733 0 0 1 -4.17806 0
1 263 5.733 2.8665 -5.733 0 0 1 -4.14776 0
1 238 7.16625 1.43325 -4.29975 0 0 1 -4.24396 0
1 239 8.5995 0 -5.733 0 0 1 -4.24296 0
1 265 8.5995 2.8665 -5.733 0 0 1 -4.14935 0
1 240 10.0328 1.43325 -4.29975 0 0 1 -4.18548 0
1 241 11.466 0 -5.733 0 0 1 -4.13188 0
2 267 11.466 2.8665 -5.733 0 0 1 -4.35431 0
1 242 12.8992 1.43325 -4.29975 0 0 1 -4.20002 0
1 243 14.3325 0 -5.733 0 0 1 -4.00079 0
1 269 14.3325 2.8665 -5.733 0 0 1 -3.82838 0
1 244 15.7657 1.43325 -4.29975 0 0 1 -4.14149 0
1 245 17.199 0 -5.733 0 0 1 -3.44424 0
1 246 18.6322 1.43325 -4.29975 0 0 1 -3.07339 0
1 271 17.199 2.8665 -5.733 0 0 1 -3.10741 0
1 248 -15.7657 4.29975 -4.29975 0 0 1 -3.74289 0
2 250 -12.8992 4.29975 -4.29975 0 0 1 -4.34557 0
1 273 -14.3325 5.733 -5.733 0 0 1 -3.46274 0
1 252 -10.0328 4.29975 -4.29975 0 0 1 -4.07948 0
1 275 -11.466 5.733 -5.733 0 0 1 -4.07988 0
1 254 -7.16625 4.29975 -4.29975 0 0 1 -4.14778 0
1 277 -8.5995 5.733 -5.733 0 0 1 -4.10235 0
2 256 -4.29975 4.29975 -4.29975 0 0 1 -4.38403 0
2 279 -5.733 5.733 -5.733 0 0 1 -4.40296 0
2 258 -1.43325 4.29975 -4.29975 0 0 1 -4.403 0
1 281 -2.8665 5.733 -5.733 0 0 1 -4.14776 0
1 260 1.43325 4.29975 -4.29975 0 0 1 -4.09619 0
1 283 0 5.733 -5.733 0 0 1 -4.14883 0
2 285 2.8665 5.733 -5.733 0 0 1 -4.40246 0
2 262 4.29975 4.29975 -4.29975 0 0 1 -4.37528 0
2 287 5.733 5.733 -5.733 0 0 1 -4.39469 0
1 264 7.16625 4.29975 -4.29975 0 0 1 -4.18202 0
1 289 8.5995 5.733 -5.733 0 0 1 -4.15201 0
1 266 10.0328 4.29975 -4.29975 0 0 1 -4.1353 0
1 291 11.466 5.733 -5.733 0 0 1 -4.01973 0
2 268 12.8992 4.29975 -4.29975 0 0 1 -4.36285 0
2 293 14.3325 5.733 -5.733 0 0 1 -3.69202 0
1 270 15.7657 4.29975 -4.29975 0 0 1 -3.74211 0
1 272 -15.7657 7.16625 -4.29975 0 0 1 -3.09525 0
1 274 -12.8992 7.16625 -4.29975 0 0 1 -3.82794 0
1 276 -10.0328 7.16625 -4.29975 0 0 1 -4.20919 0
1 295 -11.466 8.5995 -5.733 0 0 1 -3.25843 0
1 278 -7.16625 7.16625 -4.29975 0 0 1 -4.24541 0
2 297 -8.5995 8.5995 -5.733 0 0 1 -4.03004 0
1 280 -4.29975 7.16625 -4.29975 0 0 1 -4.09809 0
1 299 -5.733 8.5995 -5.733 0 0 1 -4.05671 0
1 282 -1.43325 7.16625 -4.29975 0 0 1 -4.15252 0
1 301 -2.8665 8.5995 -5.733 0 0 1 -4.23106 0
1 284 1.43325 7.16625 -4.29975 0 0 1 -4.19582 0
1 303 0 8.5995 -5.733 0 0 1 -4.12948 0
1 305 2.8665 8.5995 -5.733 0 0 1 -4.19119 0
2 286 4.29975 7.16625 -4.29975 0 0 1 -4.37728 0
1 307 5.733 8.5995 -5.733 0 0 1 -4.0631 0
1 288 7.16625 7.16625 -4.29975 0 0 1 -4.14078 0
1 309 8.5995 8.5995 -5.733 0 0 1 -3.76223 0
1 290 10.0328 7.16625 -4.29975 0 0 1 -4.15234 0
1 311 11.466 8.5995 -5.733 0 0 1 -3.32276 0
1 292 12.8992 7.16625 -4.29975 0 0 1 -3.88784 0
1 294 15.7657 7.16625 -4.29975 0 0 1 -3.00669 0
1 296 -10.0328 10.0328 -4.29975 0 0 1 -3.26539 0
1 298 -7.16625 10.0328 -4.29975 0 0 1 -3.77958 0
2 300 -4.29975 10.0328 -4.29975 0 0 1 -4.2555 0
2 312 -5.733 11.466 -5.733 0 0 1 -3.11788 0
1 302 -1.43325 10.0328 -4.29975 0 0 1 -3.98258 0
1 313 -2.8665 11.466 -5.733 0 0 1 -3.22841 0
1 304 1.43325 10.0328 -4.29975 0 0 1 -4.068 0
1 314 0 11.466 -5.733 0 0 1 -3.23876 0
1 315 2.8665 11.466 -5.733 0 0 1 -3.22382 0
1 306 4.29975 10.0328 -4.29975 0 0 1 -3.96516 0
2 316 5.733 11.466 -5.733 0 0 1 -3.12846 0
1 308 7.16625 10.0328 -4.29975 0 0 1 -3.87633 0
1 310 10.0328 10.0328 -4.29975 0 0 1 -3.31787 0
1 317 -10.0328 -10.0328 -1.43325 0 0 1 -3.08066 0
1 318 -7.16625 -10.0328 -1.43325 0 0 1 -3.41324 0
2 319 -4.29975 -10.0328 -1.43325 0 0 1 -3.92355 0
1 320 -1.43325 -10.0328 -1.43325 0 0 1 -3.61202 0
2 321 1.43325 -10.0328 -1.43325 0 0 1 -3.94613 0
1 322 4.29975 -10.0328 -1.43325 0 0 1 -3.67871 0
2 323 7.16625 -10.0328 -1.43325 0 0 1 -3.5689 0
1 324 10.0328 -10.0328 -1.43325 0 0 1 -3.00642 0
1 325 -15.7657 -7.16625 -1.43325 0 0 1 -2.8866 0
1 326 -12.8992 -7.16625 -1.43325 0 0 1 -3.72613 0
1 327 -11.466 -8.5995 -2.8665 0 0 1 -3.26062 0
1 328 -10.0328 -7.16625 -1.43325 0 0 1 -4.20343 0
1 329 -8.5995 -8.5995 -2.8665 0 0 1 -3.72848 0
1 330 -7.16625 -7.16625 -1.43325 0 0 1 -4.1745 0
1 331 -5.733 -8.5995 -2.8665 0 0 1 -3.88403 0
1 332 -4.29975 -7.16625 -1.43325 0 0 1 -4.10795 0
1 333 -2.8665 -8.5995 -2.8665 0 0 1 -4.02375 0
2 334 -1.43325 -7.16625 -1.43325 0 0 1 -4.37464 0
1 335 0 -8.5995 -2.8665 0 0 1 -3.92544 0
1 336 1.43325 -7.16625 -1.43325 0 0 1 -4.11096 0
2 337 2.8665 -8.5995 -2.8665 0 0 1 -4.2374 0
1 338 4.29975 -7.16625 -1.43325 0 0 1 -4.09853 0
1 339 5.733 -8.5995 -2.8665 0 0 1 -3.75575 0
1 340 7.16625 -7.16625 -1.43325 0 0 1 -4.14861 0
1 341 8.5995 -8.5995 -2.8665 0 0 1 -3.73204 0
1 342 10.0328 -7.16625 -1.43325 0 0 1 -4.06812 0
2 343 11.466 -8.5995 -2.8665 0 0 1 -3.43465 0
1 344 12.8992 -7.16625 -1.43325 0 0 1 -3.76839 0
1 345 15.7657 -7.16625 -1.43325 0 0 1 -2.89373 0
1 346 -18.6322 -4.29975 -1.43325 0 0 1 -2.89044 0
1 347 -15.7657 -4.29975 -1.43325 0 0 1 -4.01353 0
1 348 -14.3325 -5.733 -2.8665 0 0 1 -3.64918 0
2 349 -12.8992 -4.29975 -1.43325 0 0 1 -4.42365 0
1 350 -11.466 -5.733 -2.8665 0 0 1 -4.19296 0
1 351 -10.0328 -4.29975 -1.43325 0 0 1 -4.14108 0
1 352 -8.5995 -5.733 -2.8665 0 0 1 -4.2296 0
2 353 -7.16625 -4.29975 -1.43325 0 0 1 -4.40176 0
1 354 -5.733 -5.733 -2.8665 0 0 1 -4.18605 0
2 355 -4.29975 -4.29975 -1.43325 0 0 1 -4.41976 0
1 356 -2.8665 -5.733 -2.8665 0 0 1 -4.15252 0
1 357 -1.43325 -4.29975 -1.43325 0 0 1 -4.0588 0
1 358 0 -5.733 -2.8665 0 0 1 -4.16385 0
2 359 1.43325 -4.29975 -1.43325 0 0 1 -4.38972 0
1 360 2.8665 -5.733 -2.8665 0 0 1 -4.05164 0
2 361 4.29975 -4.29975 -1.43325 0 0 1 -4.38993 0
2 362 5.733 -5.733 -2.8665 0 0 1 -4.34575 0
2 363 7.16625 -4.29975 -1.43325 0 0 1 -4.42154 0
1 364 8.5995 -5.733 -2.8665 0 0 1 -4.11655 0
2 365 10.0328 -4.29975 -1.43325 0 0 1 -4.35147 0
1 366 11.466 -5.733 -2.8665 0 0 1 -4.02758 0
1 367 12.8992 -4.29975 -1.43325 0 0 1 -4.12321 0
1 368 14.3325 -5.733 -2.8665 0 0 1 -3.62464 0
1 369 15.7657 -4.29975 -1.43325 0 0 1 -3.97888 0
2 370 18.6322 -4.29975 -1.43325 0 0 1 -2.81407 0
1 371 -18.6322 -1.43325 -1.43325 0 0 1 -3.53199 0
1 372 -17.199 -2.8665 -2.8665 0 0 1 -3.63911 0
1 373 -15.7657 -1.43325 -1.43325 0 0 1 -4.19652 0
1 374 -14.3325 -2.8665 -2.8665 0 0 1 -4.15154 0
1 375 -12.8992 -1.43325 -1.43325 0 0 1 -4.14014 0
1 376 -11.466 -2.8665 -2.8665 0 0 1 -4.14643 0
1 377 -10.0328 -1.43325 -1.43325 0 0 1 -4.24724 0
1 378 -8.5995 -2.8665 -2.8665 0 0 1 -4.18464 0
1 379 -7.16625 -1.43325 -1.43325 0 0 1 -4.13287 0
2 380 -5.733 -2.8665 -2.8665 0 0 1 -4.38104 0
2 381 -4.29975 -1.43325 -1.43325 0 0 1 -4.3835 0
2 382 -2.8665 -2.8665 -2.8665 0 0 1 -4.41596 0
1 383 -1.43325 -1.43325 -1.43325 0 0 1 -4.14923 0
2 384 0 -2.8665 -2.8665 0 0 1 -4.39043 0
2 385 1.43325 -1.43325 -1.43325 0 0 1 -4.38879 0
2 386 2.8665 -2.8665 -2.8665 0 0 1 -4.38966 0
1 387 4.29975 -1.43325 -1.43325 0 0 1 -4.10032 0
1 388 5.733 -2.8665 -2.8665 0 0 1 -4.05113 0
2 389 7.16625 -1.43325 -1.43325 0 0 1 -4.39833 0
2 390 8.5995 -2.8665 -2.8665 0 0 1 -4.37977 0
1 391 10.0328 -1.43325 -1.43325 0 0 1 -4.05342 0
2 392 11.466 -2.8665 -2.8665 0 0 1 -4.39943 0
2 393 12.8992 -1.43325 -1.43325 0 0 1 -4.38214 0
1 394 14.3325 -2.8665 -2.8665 0 0 1 -4.10846 0
1 395 15.7657 -1.43325 -1.43325 0 0 1 -4.14752 0
1 396 17.199 -2.8665 -2.8665 0 0 1 -3.57388 0
1 397 18.6322 -1.43325 -1.43325 0 0 1 -3.53296 0
2 398 -18.6322 1.43325 -1.43325 0 0 1 -3.95069 0
1 399 -17.199 0 -2.8665 0 0 1 -3.99658 0
2 400 -15.7657 1.43325 -1.43325 0 0 1 -4.41912 0
2 426 -17.199 2.8665 -2.8665 0 0 1 -4.1089 0
1 401 -14.3325 0 -2.8665 0 0 1 -4.20865 0
2 402 -12.8992 1.43325 -1.43325 0 0 1 -4.3631 0
1 428 -14.3325 2.8665 -2.8665 0 0 1 -4.07635 0
2 403 -11.466 0 -2.8665 0 0 1 -4.40164 0
1 404 -10.0328 1.43325 -1.43325 0 0 1 -4.07822 0
2 430 -11.466 2.8665 -2.8665 0 0 1 -4.40203 0
1 405 -8.5995 0 -2.8665 0 0 1 -4.20974 0
1 406 -7.16625 1.43325 -1.43325 0 0 1 -4.234 0
1 432 -8.5995 2.8665 -2.8665 0 0 1 -4.16374 0
1 407 -5.733 0 -2.8665 0 0 1 -4.10271 0
1 408 -4.29975 1.43325 -1.43325 0 0 1 -4.12995 0
1 434 -5.733 2.8665 -2.8665 0 0 1 -4.16554 0
1 409 -2.8665 0 -2.8665 0 0 1 -4.16364 0
1 410 -1.43325 1.43325 -1.43325 0 0 1 -4.2009 0
1 436 -2.8665 2.8665 -2.8665 0 0 1 -4.20404 0
1 411 0 0 -2.8665 0 0 1 -4.12137 0
1 412 1.43325 1.43325 -1.43325 0 0 1 -4.14115 0
2 413 2.8665 0 -2.8665 0 0 1 -4.41427 0
1 438 0 2.8665 -2.8665 0 0 1 -4.14136 0
1 440 2.8665 2.8665 -2.8665 0 0 1 -4.16079 0
1 414 4.29975 1.43325 -1.43325 0 0 1 -4.23796 0
1 415 5.733 0 -2.8665 0 0 1 -4.1509 0
2 442 5.733 2.8665 -2.8665 0 0 1 -4.40656 0
1 416 7.16625 1.43325 -1.43325 0 0 1 -4.13965 0
1 417 8.5995 0 -2.8665 0 0 1 -4.15161 0
1 444 8.5995 2.8665 -2.8665 0 0 1 -4.17266 0
2 418 10.0328 1.43325 -1.43325 0 0 1 -4.38206 0
2 419 11.466 0 -2.8665 0 0 1 -4.40132 0
2 446 11.466 2.8665 -2.8665 0 0 1 -4.43238 0
1 420 12.8992 1.43325 -1.43325 0 0 1 -4.1393 0
1 421 14.3325 0 -2.8665 0 0 1 -4.19085 0
1 448 14.3325 2.8665 -2.8665 0 0 1 -4.17609 0
1 422 15.7657 1.43325 -1.43325 0 0 1 -4.23227 0
1 423 17.199 0 -2.8665 0 0 1 -4.04824 0
1 424 18.6322 1.43325 -1.43325 0 0 1 -3.71855 0
1 450 17.199 2.8665 -2.8665 0 0 1 -3.83281 0
1 425 -18.6322 4.29975 -1.43325 0 0 1 -3.21921 0
1 427 -15.7657 4.29975 -1.43325 0 0 1 -4.17496 0
1 452 -17.199 5.733 -2.8665 0 0 1 -3.25367 0
1 429 -12.8992 4.29975 -1.43325 0 0 1 -4.13457 0
1 454 -14.3325 5.733 -2.8665 0 0 1 -4.15819 0
1 431 -10.0328 4.29975 -1.43325 0 0 1 -4.2345 0
2 456 -11.466 5.733 -2.8665 0 0 1 -4.4093 0
1 433 -7.16625 4.29975 -1.43325 0 0 1 -4.22286 0
1 458 -8.5995 5.733 -2.8665 0 0 1 -4.15999 0
1 435 -4.29975 4.29975 -1.43325 0 0 1 -4.14863 0
2 460 -5.733 5.733 -2.8665 0 0 1 -4.42054 0
1 437 -1.43325 4.29975 -1.43325 0 0 1 -4.06492 0
2 462 -2.8665 5.733 -2.8665 0 0 1 -4.38603 0
2 439 1.43325 4.29975 -1.43325 0 0 1 -4.39278 0
1 464 0 5.733 -2.8665 0 0 1 -4.14803 0
1 466 2.8665 5.733 -2.8665 0 0 1 -4.155 0
1 441 4.29975 4.29975 -1.43325 0 0 1 -4.14515 0
2 468 5.733 5.733 -2.8665 0 0 1 -4.40771 0
1 443 7.16625 4.29975 -1.43325 0 0 1 -4.18079 0
1 470 8.5995 5.733 -2.8665 0 0 1 -4.06774 0
1 445 10.0328 4.29975 -1.43325 0 0 1 -4.18536 0
2 472 11.466 5.733 -2.8665 0 0 1 -4.3922 0
1 447 12.8992 4.29975 -1.43325 0 0 1 -4.13203 0
2 474 14.3325 5.733 -2.8665 0 0 1 -4.37906 0
1 449 15.7657 4.29975 -1.43325 0 0 1 -4.15883 0
1 451 18.6322 4.29975 -1.43325 0 0 1 -3.24619 0
2 476 17.199 5.733 -2.8665 0 0 1 -3.44419 0
1 453 -15.7657 7.16625 -1.43325 0 0 1 -3.57456 0
1 455 -12.8992 7.16625 -1.43325 0 0 1 -4.17302 0
1 477 -14.3325 8.5995 -2.8665 0 0 1 -3.29591 0
1 457 -10.0328 7.16625 -1.43325 0 0 1 -4.18694 0
1 479 -11.466 8.5995 -2.8665 0 0 1 -3.88788 0
1 459 -7.16625 7.16625 -1.43325 0 0 1 -4.09568 0
1 481 -8.5995 8.5995 -2.8665 0 0 1 -4.11751 0
2 461 -4.29975 7.16625 -1.43325 0 0 1 -4.37181 0
1 483 -5.733 8.5995 -2.8665 0 0 1 -4.16615 0
2 463 -1.43325 7.16625 -1.43325 0 0 1 -4.37407 0
1 485 -2.8665 8.5995 -2.8665 0 0 1 -4.14451 0
1 465 1.43325 7.16625 -1.43325 0 0 1 -4.10837 0
2 487 0 8.5995 -2.8665 0 0 1 -4.41081 0
1 489 2.8665 8.5995 -2.8665 0 0 1 -4.14586 0
1 467 4.29975 7.16625 -1.43325 0 0 1 -4.19491 0
2 491 5.733 8.5995 -2.8665 0 0 1 -4.40789 0
1 469 7.16625 7.16625 -1.43325 0 0 1 -4.18138 0
2 493 8.5995 8.5995 -2.8665 0 0 1 -4.35969 0
1 471 10.0328 7.16625 -1.43325 0 0 1 -4.21975 0
1 495 11.466 8.5995 -2.8665 0 0 1 -3.80109 0
1 473 12.8992 7.16625 -1.43325 0 0 1 -4.10755 0
2 497 14.3325 8.5995 -2.8665 0 0 1 -3.40608 0
2 475 15.7657 7.16625 -1.43325 0 0 1 -3.76533 0
1 478 -12.8992 10.0328 -1.43325 0 0 1 -3.21354 0
2 480 -10.0328 10.0328 -1.43325 0 0 1 -4.12289 0
2 482 -7.16625 10.0328 -1.43325 0 0 1 -4.37146 0
2 498 -8.5995 11.466 -2.8665 0 0 1 -3.42753 0
2 484 -4.29975 10.0328 -1.43325 0 0 1 -4.40531 0
2 500 -5.733 11.466 -2.8665 0 0 1 -3.9455 0
2 486 -1.43325 10.0328 -1.43325 0 0 1 -4.39961 0
1 502 -2.8665 11.466 -2.8665 0 0 1 -3.68337 0
1 488 1.43325 10.0328 -1.43325 0 0 1 -4.14513 0
2 504 0 11.466 -2.8665 0 0 1 -3.95225 0
1 506 2.8665 11.466 -2.8665 0 0 1 -3.74194 0
1 490 4.29975 10.0328 -1.43325 0 0 1 -4.17771 0
1 508 5.733 11.466 -2.8665 0 0 1 -3.68099 0
2 492 7.16625 10.0328 -1.43325 0 0 1 -4.36033 0
1 510 8.5995 11.466 -2.8665 0 0 1 -3.24365 0
1 494 10.0328 10.0328 -1.43325 0 0 1 -3.81034 0
2 496 12.8992 10.0328 -1.43325 0 0 1 -3.39414 0
1 499 -7.16625 12.8992 -1.43325 0 0 1 -3.05102 0
1 501 -4.29975 12.8992 -1.43325 0 0 1 -3.19819 0
2 503 -1.43325 12.8992 -1.43325 0 0 1 -3.32675 0
1 505 1.43325 12.8992 -1.43325 0 0 1 -3.25061 0
1 507 4.29975 12.8992 -1.43325 0 0 1 -3.22724 0
1 509 7.16625 12.8992 -1.43325 0 0 1 -3.04584 0
1 511 -10.0328 -10.0328 1.43325 0 0 1 -3.09348 0
1 512 -7.16625 -10.0328 1.43325 0 0 1 -3.51047 0
1 513 -5.733 -11.466 0 0 0 1 -2.87472 0
2 514 -4.29975 -10.0328 1.43325 0 0 1 -4.10149 0
1 515 -2.8665 -11.466 0 0 0 1 -3.21684 0
1 516 -1.43325 -10.0328 1.43325 0 0 1 -3.95802 0
1 720 -2.8665 -11.466 2.8665 0 0 1 -3.07399 0
1 517 0 -11.466 0 0 0 1 -3.22693 0
2 518 1.43325 -10.0328 1.43325 0 0 1 -4.24821 0
1 519 2.8665 -11.466 0 0 0 1 -3.17742 0
1 722 0 -11.466 2.8665 0 0 1 -3.22926 0
1 724 2.8665 -11.466 2.8665 0 0 1 -3.12275 0
1 520 4.29975 -10.0328 1.43325 0 0 1 -3.82399 0
2 521 5.733 -11.466 0 0 0 1 -2.94932 0
1 522 7.16625 -10.0328 1.43325 0 0 1 -3.52721 0
2 523 10.0328 -10.0328 1.43325 0 0 1 -3.14815 0
1 524 -15.7657 -7.16625 1.43325 0 0 1 -3.0927 0
1 525 -12.8992 -7.16625 1.43325 0 0 1 -3.76599 0
2 526 -11.466 -8.5995 0 0 0 1 -3.80454 0
1 527 -10.0328 -7.16625 1.43325 0 0 1 -4.1891 0
1 728 -11.466 -8.5995 2.8665 0 0 1 -3.28295 0
1 528 -8.5995 -8.5995 0 0 0 1 -3.92362 0
1 529 -7.16625 -7.16625 1.43325 0 0 1 -4.24287 0
2 730 -8.5995 -8.5995 2.8665 0 0 1 -4.08367 0
2 530 -5.733 -8.5995 0 0 0 1 -4.34714 0
1 531 -4.29975 -7.16625 1.43325 0 0 1 -4.09648 0
1 732 -5.733 -8.5995 2.8665 0 0 1 -3.90746 0
2 532 -2.8665 -8.5995 0 0 0 1 -4.39152 0
1 533 -1.43325 -7.16625 1.43325 0 0 1 -4.18192 0
2 734 -2.8665 -8.5995 2.8665 0 0 1 -4.38489 0
2 534 0 -8.5995 0 0 0 1 -4.39483 0
1 535 1.43325 -7.16625 1.43325 0 0 1 -4.14098 0
2 536 2.8665 -8.5995 0 0 0 1 -4.4015 0
2 736 0 -8.5995 2.8665 0 0 1 -4.38968 0
1 738 2.8665 -8.5995 2.8665 0 0 1 -4.12714 0
2 537 4.29975 -7.16625 1.43325 0 0 1 -4.37395 0
2 538 5.733 -8.5995 0 0 0 1 -4.34657 0
1 740 5.733 -8.5995 2.8665 0 0 1 -4.03391 0
1 539 7.16625 -7.16625 1.43325 0 0 1 -4.09643 0
1 540 8.5995 -8.5995 0 0 0 1 -3.93254 0
1 742 8.5995 -8.5995 2.8665 0 0 1 -3.87599 0
2 541 10.0328 -7.16625 1.43325 0 0 1 -4.3576 0
2 542 11.466 -8.5995 0 0 0 1 -3.8002 0
1 744 11.466 -8.5995 2.8665 0 0 1 -3.40583 0
1 543 12.8992 -7.16625 1.43325 0 0 1 -3.72048 0
1 544 15.7657 -7.16625 1.43325 0 0 1 -3.10009 0
1 545 -18.6322 -4.29975 1.43325 0 0 1 -3.0722 0
2 546 -17.199 -5.733 0 0 0 1 -3.66941 0
1 547 -15.7657 -4.29975 1.43325 0 0 1 -4.15871 0
1 746 -17.199 -5.733 2.8665 0 0 1 -2.99829 0
1 548 -14.3325 -5.733 0 0 0 1 -3.97445 0
1 549 -12.8992 -4.29975 1.43325 0 0 1 -4.14542 0
2 748 -14.3325 -5.733 2.8665 0 0 1 -4.11525 0
1 550 -11.466 -5.733 0 0 0 1 -4.0845 0
1 551 -10.0328 -4.29975 1.43325 0 0 1 -4.19673 0
2 750 -11.466 -5.733 2.8665 0 0 1 -4.35615 0
1 552 -8.5995 -5.733 0 0 0 1 -4.25457 0
1 553 -7.16625 -4.29975 1.43325 0 0 1 -4.13789 0
1 752 -8.5995 -5.733 2.8665 0 0 1 -4.08257 0
1 554 -5.733 -5.733 0 0 0 1 -4.18905 0
2 555 -4.29975 -4.29975 1.43325 0 0 1 -4.39841 0
1 754 -5.733 -5.733 2.8665 0 0 1 -4.21061 0
1 556 -2.8665 -5.733 0 0 0 1 -4.11031 0
1 557 -1.43325 -4.29975 1.43325 0 0 1 -4.18717 0
2 756 -2.8665 -5.733 2.8665 0 0 1 -4.39092 0
2 558 0 -5.733 0 0 0 1 -4.40745 0
1 559 1.43325 -4.29975 1.43325 0 0 1 -4.09397 0
2 560 2.8665 -5.733 0 0 0 1 -4.37185 0
2 758 0 -5.733 2.8665 0 0 1 -4.42336 0
1 760 2.8665 -5.733 2.8665 0 0 1 -4.11382 0
1 561 4.29975 -4.29975 1.43325 0 0 1 -4.10679 0
1 562 5.733 -5.733 0 0 0 1 -4.04954 0
1 762 5.733 -5.733 2.8665 0 0 1 -4.19209 0
1 563 7.16625 -4.29975 1.43325 0 0 1 -4.17288 0
2 564 8.5995 -5.733 0 0 0 1 -4.39089 0
1 764 8.5995 -5.733 2.8665 0 0 1 -4.19348 0
1 565 10.0328 -4.29975 1.43325 0 0 1 -4.13923 0
2 566 11.466 -5.733 0 0 0 1 -4.39323 0
1 766 11.466 -5.733 2.8665 0 0 1 -4.18292 0
1 567 12.8992 -4.29975 1.43325 0 0 1 -4.23219 0
2 568 14.3325 -5.733 0 0 0 1 -4.2662 0
1 768 14.3325 -5.733 2.8665 0 0 1 -3.88683 0
1 569 15.7657 -4.29975 1.43325 0 0 1 -4.14368 0
1 570 17.199 -5.733 0 0 0 1 -3.36185 0
2 571 18.6322 -4.29975 1.43325 0 0 1 -3.11903 0
1 770 17.199 -5.733 2.8665 0 0 1 -3.06979 0
2 572 -18.6322 -1.43325 1.43325 0 0 1 -3.94564 0
1 573 -17.199 -2.8665 0 0 0 1 -3.99628 0
1 574 -15.7657 -1.43325 1.43325 0 0 1 -4.15684 0
1 772 -17.199 -2.8665 2.8665 0 0 1 -3.86347 0
1 575 -14.3325 -2.8665 0 0 0 1 -4.18836 0
1 576 -12.8992 -1.43325 1.43325 0 0 1 -4.20817 0
1 774 -14.3325 -2.8665 2.8665 0 0 1 -4.20106 0
2 577 -11.466 -2.8665 0 0 0 1 -4.4011 0
1 578 -10.0328 -1.43325 1.43325 0 0 1 -4.1339 0
1 776 -11.466 -2.8665 2.8665 0 0 1 -4.0538 0
1 579 -8.5995 -2.8665 0 0 0 1 -4.19025 0
1 580 -7.16625 -1.43325 1.43325 0 0 1 -4.25124 0
1 778 -8.5995 -2.8665 2.8665 0 0 1 -4.25599 0
1 581 -5.733 -2.8665 0 0 0 1 -4.14427 0
1 582 -4.29975 -1.43325 1.43325 0 0 1 -4.09337 0
1 780 -5.733 -2.8665 2.8665 0 0 1 -4.14515 0
1 583 -2.8665 -2.8665 0 0 0 1 -4.21169 0
1 584 -1.43325 -1.43325 1.43325 0 0 1 -4.18893 0
1 782 -2.8665 -2.8665 2.8665 0 0 1 -4.1537 0
1 585 0 -2.8665 0 0 0 1 -4.12418 0
2 586 1.43325 -1.43325 1.43325 0 0 1 -4.37652 0
1 587 2.8665 -2.8665 0 0 0 1 -4.07427 0
1 784 0 -2.8665 2.8665 0 0 1 -4.07714 0
2 786 2.8665 -2.8665 2.8665 0 0 1 -4.37964 0
1 588 4.29975 -1.43325 1.43325 0 0 1 -4.14772 0
1 589 5.733 -2.8665 0 0 0 1 -4.16652 0
2 788 5.733 -2.8665 2.8665 0 0 1 -4.40045 0
2 590 7.16625 -1.43325 1.43325 0 0 1 -4.40384 0
2 591 8.5995 -2.8665 0 0 0 1 -4.3828 0
1 790 8.5995 -2.8665 2.8665 0 0 1 -4.13398 0
1 592 10.0328 -1.43325 1.43325 0 0 1 -4.19506 0
1 593 11.466 -2.8665 0 0 0 1 -4.11456 0
1 792 11.466 -2.8665 2.8665 0 0 1 -4.24461 0
1 594 12.8992 -1.43325 1.43325 0 0 1 -4.18127 0
1 595 14.3325 -2.8665 0 0 0 1 -4.1513 0
1 794 14.3325 -2.8665 2.8665 0 0 1 -4.15452 0
1 596 15.7657 -1.43325 1.43325 0 0 1 -4.19062 0
2 597 17.199 -2.8665 0 0 0 1 -4.25319 0
1 598 18.6322 -1.43325 1.43325 0 0 1 -3.67803 0
2 796 17.199 -2.8665 2.8665 0 0 1 -4.1186 0
1 599 -20.0655 0 0 0 0 1 -3.06841 0
1 628 -20.0655 2.8665 0 0 0 1 -3.06844 0
1 798 -20.0655 0 2.8665 0 0 1 -3.00866 0
1 827 -20.0655 2.8665 2.8665 0 0 1 -3.06703 0
2 600 -18.6322 1.43325 1.43325 0 0 1 -4.28955 0
1 601 -17.199 0 0 0 0 1 -4.15417 0
1 602 -15.7657 1.43325 1.43325 0 0 1 -4.18027 0
1 630 -17.199 2.8665 0 0 0 1 -4.10172 0
2 800 -17.199 0 2.8665 0 0 1 -4.34031 0
1 829 -17.199 2.8665 2.8665 0 0 1 -4.14217 0
1 603 -14.3325 0 0 0 0 1 -4.15728 0
1 604 -12.8992 1.43325 1.43325 0 0 1 -4.08866 0